ITEM: TIMESTEP
0
ITEM: NUMBER OF ATOMS
288
ITEM: BOX BOUNDS xy xz yz xx yy zz
0.0 14.873618743 7.436809228
0.0 12.880930628 8.6e-08
0.0 13.87370028 -1.5e-08
ITEM: ATOMS id type x y z vx vy vz fx fy fz
1 2 2.338671397 1.12e-07 0.380392751 0.0 0.0 0.0 8.03393015225e-06 8.1990950253e-05 -3.29962078763e-05
2 2 9.775480768 1.12e-07 0.380392751 0.0 0.0 0.0 2.03233431042e-05 8.00693933399e-05 2.61199147843e-05
3 2 6.057076011 6.440465426 0.380392751 0.0 0.0 0.0 2.60865179191e-05 -9.34111183754e-05 4.3085780101e-05
4 2 13.493885382 6.440465426 0.380392751 0.0 0.0 0.0 3.36218565111e-05 -6.6054682189e-05 1.04461545838e-05
5 2 2.33867144 1.04e-07 7.317242891 0.0 0.0 0.0 -0.00259655046632 -0.000134545138888 0.000554830418693
6 2 9.775480812 1.04e-07 7.317242891 0.0 0.0 0.0 -0.000215837671592 0.000460785246026 -3.21414963937e-05
7 2 6.057076054 6.440465418 7.317242891 0.0 0.0 0.0 -2.49082963566e-06 -0.000592047616717 -5.37674599474e-05
8 2 13.493885426 6.440465418 7.317242891 0.0 0.0 0.0 4.8943093067e-05 -0.000202313005842 2.32458587151e-05
9 1 2.400632363 4.61e-07 1.351465958 0.0 0.0 0.0 6.76688949213e-05 -4.97490582268e-05 0.000120949972774
10 1 9.837441735 4.61e-07 1.351465958 0.0 0.0 0.0 4.62233851921e-05 -5.47786680081e-05 1.8044486614e-05
11 1 6.119036977 6.440465774 1.351465958 0.0 0.0 0.0 4.08932360996e-05 5.92912402171e-05 -5.73401253492e-06
12 1 13.555846349 6.440465774 1.351465958 0.0 0.0 0.0 4.00580652763e-05 3.83705901404e-05 4.70973712746e-05
13 1 2.400632406 4.53e-07 8.288316098 0.0 0.0 0.0 0.000657316269975 -0.000121927966817 -0.000525152401027
14 1 9.837441778 4.53e-07 8.288316098 0.0 0.0 0.0 0.000127733627173 -0.000201657406383 0.000106488677404
15 1 6.11903702 6.440465767 8.288316098 0.0 0.0 0.0 4.6234720607e-05 0.0002380099879 0.000129714254118
16 1 13.555846392 6.440465767 8.288316098 0.0 0.0 0.0 3.55061038256e-05 9.19659119768e-05 2.62651939353e-05
17 1 10.701141082 12.880930558 0.072968506 0.0 0.0 0.0 4.72436831006e-05 -5.37351016749e-05 5.80433252776e-05
18 1 18.137950453 12.880930558 0.072968506 0.0 0.0 0.0 8.0599573525e-05 -2.44835297852e-05 5.65188602897e-05
19 1 6.982736468 6.440465244 0.072968506 0.0 0.0 0.0 7.99269275873e-05 5.21528791895e-05 5.52360937539e-05
20 1 14.419545839 6.440465244 0.072968506 0.0 0.0 0.0 4.49893775595e-05 2.46489793965e-05 5.51697161662e-05
21 1 10.701141125 12.880930551 7.009818646 0.0 0.0 0.0 0.00424475748246 0.00171832230684 6.94896648493e-05
22 1 18.137950497 12.880930551 7.009818646 0.0 0.0 0.0 0.000167518131131 -9.47603935662e-05 4.98842046773e-05
23 1 6.982736511 6.440465237 7.009818646 0.0 0.0 0.0 0.000157635948658 0.00029376838583 5.58374288345e-05
24 1 14.419545882 6.440465237 7.009818646 0.0 0.0 0.0 1.09218844759e-05 7.96861955154e-05 5.5664856929e-05
25 2 13.704282012 2.025348059 0.380394512 0.0 0.0 0.0 -7.38917207597e-05 6.14907087987e-05 5.95087921196e-06
26 2 6.26747264 2.025348059 0.380394512 0.0 0.0 0.0 6.35656107066e-05 0.000167607485036 5.19715652949e-05
27 2 17.422686626 8.465813373 0.380394512 0.0 0.0 0.0 4.23427561274e-05 -9.82586304929e-06 7.03577760475e-06
28 2 9.985877254 8.465813373 0.380394512 0.0 0.0 0.0 -7.82749021294e-05 -8.58560112292e-05 -5.82857943646e-06
29 2 13.704282055 2.025348052 7.317244652 0.0 0.0 0.0 -0.00021562460753 0.000128809609302 1.41281441061e-05
30 2 6.267472684 2.025348052 7.317244652 0.0 0.0 0.0 -0.0102036411038 -0.0151177927882 -0.011363610756
31 2 17.422686669 8.465813365 7.317244652 0.0 0.0 0.0 0.000162261703973 -0.000101754688801 1.19571153155e-05
32 2 9.985877298 8.465813365 7.317244652 0.0 0.0 0.0 -0.000266338163104 -0.000426450150782 2.75433424774e-05
33 1 13.673300338 2.079010187 1.351467718 0.0 0.0 0.0 2.20126331878e-05 7.51720512212e-06 3.54950240829e-05
34 1 6.236490966 2.079010187 1.351467718 0.0 0.0 0.0 -6.81327432994e-05 -7.24520899024e-05 -5.67286431279e-05
35 1 17.391704952 8.519475501 1.351467718 0.0 0.0 0.0 -4.7921610507e-05 5.23271130235e-05 3.2404655938e-05
36 1 9.95489558 8.519475501 1.351467718 0.0 0.0 0.0 2.45418542453e-05 9.89206183861e-05 5.61322923499e-05
37 1 13.673300381 2.07901018 8.288317858 0.0 0.0 0.0 7.60925081728e-05 -1.92777832137e-05 2.41771022624e-05
38 1 6.236491009 2.07901018 8.288317858 0.0 0.0 0.0 -0.000493007220775 -0.00136141309769 0.00356778729069
39 1 17.391704995 8.519475493 8.288317858 0.0 0.0 0.0 -9.14571577291e-05 8.75551260734e-05 2.95254085292e-05
40 1 9.954895623 8.519475493 8.288317858 0.0 0.0 0.0 9.49454638237e-05 0.000229637326065 -9.22120867955e-06
41 1 13.241451457 2.826992613 0.072968839 0.0 0.0 0.0 -3.1034128295e-06 5.48012561605e-05 5.44174270541e-05
42 1 5.804642085 2.826992613 0.072968839 0.0 0.0 0.0 -6.75413175844e-05 1.86081733001e-05 5.51819258576e-05
43 1 16.959856071 9.267457927 0.072968839 0.0 0.0 0.0 -6.01909767504e-05 6.68318192447e-05 5.61222342831e-05
44 1 9.523046699 9.267457927 0.072968839 0.0 0.0 0.0 3.47841471789e-06 0.000105413125661 5.44135195928e-05
45 1 13.2414515 2.826992606 7.009818978 0.0 0.0 0.0 5.63863356781e-05 4.33920548579e-05 5.54456940221e-05
46 1 5.804642128 2.826992606 7.009818978 0.0 0.0 0.0 -0.00148163769509 0.00520714309153 -0.000937922844947
47 1 16.959856114 9.26745792 7.009818978 0.0 0.0 0.0 -0.000153375515037 9.9671363909e-05 5.18834636904e-05
48 1 9.523046743 9.26745792 7.009818978 0.0 0.0 0.0 0.000146867308114 0.000299237611731 6.23413467112e-05
49 2 17.422687622 4.415117298 0.380394729 0.0 0.0 0.0 6.10442347072e-05 7.63053429464e-06 2.14674936361e-05
50 2 9.985878251 4.415117298 0.380394729 0.0 0.0 0.0 -9.50908767066e-05 -7.41739732414e-05 3.57393082185e-05
51 2 21.141092236 10.855582612 0.380394729 0.0 0.0 0.0 -7.63778338587e-05 -6.10064367819e-05 3.30657804803e-06
52 2 13.704282865 10.855582612 0.380394729 0.0 0.0 0.0 6.74504870785e-05 -8.49637213419e-06 -3.68609799086e-05
53 2 17.422687665 4.415117291 7.317244869 0.0 0.0 0.0 0.00056488225099 -2.38620020625e-05 -4.9761330125e-05
54 2 9.985878294 4.415117291 7.317244869 0.0 0.0 0.0 -0.000501754465574 -0.000325097621145 -5.61827695344e-05
55 2 21.14109228 10.855582605 7.317244869 0.0 0.0 0.0 -0.000211439023328 -0.000125338311796 1.86848813407e-05
56 2 13.704282908 10.855582605 7.317244869 0.0 0.0 0.0 0.00107619441503 -0.00202838352458 0.000417549177673
57 1 2.518088606 4.36145465 1.351467896 0.0 0.0 0.0 -7.0427176902e-05 -4.52647384488e-05 9.12820014465e-06
58 1 9.954897977 4.36145465 1.351467896 0.0 0.0 0.0 3.29182033296e-05 5.7740771202e-06 -7.96293359936e-06
59 1 6.23649322 10.801919964 1.351467896 0.0 0.0 0.0 1.79003099504e-05 -7.99917357504e-06 4.34659495907e-05
60 1 13.673302591 10.801919964 1.351467896 0.0 0.0 0.0 -7.75746044229e-05 -3.26910299888e-05 0.000112747711552
61 1 2.518088649 4.361454643 8.288318036 0.0 0.0 0.0 -0.000242983259104 -2.73711991382e-05 0.000111230270434
62 1 9.95489802 4.361454643 8.288318036 0.0 0.0 0.0 0.000169793658519 9.41198108412e-05 0.000114250246187
63 1 6.236493263 10.801919957 8.288318036 0.0 0.0 0.0 7.30824924638e-05 1.50881384157e-05 1.74885014792e-05
64 1 13.673302635 10.801919957 8.288318036 0.0 0.0 0.0 -0.000502909723699 0.000465954895157 -0.000534795246968
65 1 16.959856167 3.613473172 0.07296928 0.0 0.0 0.0 -5.39357862397e-05 -9.66885412137e-05 5.75287539339e-05
66 1 9.523046796 3.613473172 0.07296928 0.0 0.0 0.0 5.26916268293e-06 -6.13292716503e-05 5.32740350426e-05
67 1 20.678260782 10.053938486 0.07296928 0.0 0.0 0.0 -9.74190840353e-06 -3.51758149311e-05 5.39786741041e-05
68 1 13.24145141 10.053938486 0.07296928 0.0 0.0 0.0 -5.23256560573e-05 -4.12712481531e-05 5.39635091858e-05
69 1 16.959856211 3.613473164 7.00981942 0.0 0.0 0.0 -0.000262415752902 -0.000270971596977 4.59444095255e-05
70 1 9.523046839 3.613473164 7.00981942 0.0 0.0 0.0 0.000395379875149 0.000104971001944 6.7468080031e-05
71 1 20.678260825 10.053938478 7.00981942 0.0 0.0 0.0 2.26518051545e-05 8.83272664831e-06 5.61389452132e-05
72 1 13.241451453 10.053938478 7.00981942 0.0 0.0 0.0 -4.20984319322e-05 0.000488669745439 0.000142414457231
73 2 5.098138192 9.1e-08 3.848820961 0.0 0.0 0.0 0.000402134655084 0.000658767391368 -0.00200265524776
74 2 12.534947564 9.1e-08 3.848820961 0.0 0.0 0.0 -0.000172514549359 6.14727137933e-05 1.24376243641e-05
75 2 8.816542806 6.440465404 3.848820961 0.0 0.0 0.0 -0.000198228639549 -0.000286311095823 0.000103756439283
76 2 16.253352178 6.440465404 3.848820961 0.0 0.0 0.0 9.8332512346e-05 -9.01105979003e-05 1.92160598667e-05
77 2 5.098138235 8.3e-08 10.785671101 0.0 0.0 0.0 0.000228495682263 0.000431255646713 0.000518298707534
78 2 12.534947607 8.3e-08 10.785671101 0.0 0.0 0.0 -0.000137837835147 4.77958055565e-05 3.06533042693e-06
79 2 8.816542849 6.440465397 10.785671101 0.0 0.0 0.0 -0.000150965043635 -0.000206221064177 -7.17274158669e-05
80 2 16.253352221 6.440465397 10.785671101 0.0 0.0 0.0 6.76626735695e-05 -6.72505161976e-05 -2.55520319414e-06
81 1 12.472986142 12.880930033 4.819894401 0.0 0.0 0.0 -0.000326060150551 0.000133671888804 0.00463155781172
82 1 19.909795513 12.880930033 4.819894401 0.0 0.0 0.0 5.15894511178e-05 -3.53071630074e-05 2.84498046082e-05
83 1 8.754581528 6.440464719 4.819894401 0.0 0.0 0.0 7.17961458997e-05 0.000191138391803 -1.15740084521e-05
84 1 16.191390899 6.440464719 4.819894401 0.0 0.0 0.0 -0.000127060818451 6.12130215588e-05 2.22399834693e-05
85 1 12.472986185 12.880930026 11.756744541 0.0 0.0 0.0 -0.000101818389829 -9.60831572241e-05 -2.47288429744e-05
86 1 19.909795557 12.880930026 11.756744541 0.0 0.0 0.0 -3.22154186517e-06 -1.54326272434e-05 2.83085331442e-05
87 1 8.754581571 6.440464712 11.756744541 0.0 0.0 0.0 -5.07028467742e-07 7.09408952331e-05 5.07431805174e-05
88 1 16.191390943 6.440464712 11.756744541 0.0 0.0 0.0 -7.80265729702e-05 2.45095306729e-05 3.21771655749e-05
89 1 4.172478132 1.2e-08 3.541396305 0.0 0.0 0.0 4.82683332967e-05 -0.000127914670215 0.000489544616582
90 1 11.609287504 1.2e-08 3.541396305 0.0 0.0 0.0 -1.60613979877e-05 -4.74042309692e-05 3.21996162565e-05
91 1 7.890882746 6.440465326 3.541396305 0.0 0.0 0.0 -1.23726384083e-05 0.000133586115578 -1.69848697246e-05
92 1 15.327692118 6.440465326 3.541396305 0.0 0.0 0.0 -0.000102640633975 4.24722545023e-05 6.13546826826e-05
93 1 4.172478175 5e-09 10.478246445 0.0 0.0 0.0 -7.19279997049e-05 -0.000211713428746 -0.000422987628568
94 1 11.609287547 5e-09 10.478246445 0.0 0.0 0.0 -1.47171926265e-05 -4.50038303936e-05 7.35109267128e-05
95 1 7.890882789 6.440465319 10.478246445 0.0 0.0 0.0 -1.11302884905e-05 0.00012987034698 0.000120722074114
96 1 15.327692161 6.440465319 10.478246445 0.0 0.0 0.0 -0.000105526022262 4.35432592047e-05 4.56095162014e-05
97 2 12.324550744 4.415115375 3.848820709 0.0 0.0 0.0 -0.000111024842626 -8.44983793206e-05 3.86735900607e-05
98 2 4.887741372 4.415115375 3.848820709 0.0 0.0 0.0 0.000362964603579 -0.000350432644357 0.000635732482626
99 2 16.042955358 10.855580689 3.848820709 0.0 0.0 0.0 0.000271597601644 4.78103603562e-05 -9.42750167164e-05
100 2 8.606145986 10.855580689 3.848820709 0.0 0.0 0.0 -0.000258604211273 -0.000202223068983 -0.000178521935755
101 2 12.324550787 4.415115367 10.785670849 0.0 0.0 0.0 -7.98038171297e-05 -7.26715912637e-05 -1.4142544813e-05
102 2 4.887741415 4.415115367 10.785670849 0.0 0.0 0.0 0.000198115114289 -0.000110955056195 -0.000340911285507
103 2 16.042955401 10.855580681 10.785670849 0.0 0.0 0.0 0.000167773796564 4.24662626477e-05 8.01054571572e-05
104 2 8.606146029 10.855580681 10.785670849 0.0 0.0 0.0 -0.000171739486359 -0.00013144961907 0.000172410121308
105 1 12.355530592 4.361455296 4.81989398 0.0 0.0 0.0 0.000101820205297 8.23580143661e-06 2.22178517858e-05
106 1 4.91872122 4.361455296 4.81989398 0.0 0.0 0.0 -0.000280888939377 0.000412523833203 -0.00037534981872
107 1 16.073935206 10.801920609 4.81989398 0.0 0.0 0.0 -0.00019093350299 -8.22804283931e-05 9.55491879815e-05
108 1 8.637125834 10.801920609 4.81989398 0.0 0.0 0.0 0.000226932743065 9.79546371482e-05 0.000128776613935
109 1 12.355530635 4.361455288 11.75674412 0.0 0.0 0.0 5.65566899845e-05 -1.3352726195e-05 4.11393505284e-05
110 1 4.918721263 4.361455288 11.75674412 0.0 0.0 0.0 -2.46422013247e-05 -3.40856236047e-05 0.00010472422024
111 1 16.073935249 10.801920602 11.75674412 0.0 0.0 0.0 -2.23294332832e-05 -6.03058052335e-05 1.52762530949e-05
112 1 8.637125877 10.801920602 11.75674412 0.0 0.0 0.0 7.52130534465e-05 -7.65213241835e-06 -1.43194073632e-05
113 1 12.787381758 3.613470486 3.541396271 0.0 0.0 0.0 8.31662737123e-05 -5.80353328517e-05 4.44514277876e-05
114 1 5.350572387 3.613470486 3.541396271 0.0 0.0 0.0 -0.000119370943401 -1.96693414179e-05 -0.000367340297197
115 1 16.505786372 10.0539358 3.541396271 0.0 0.0 0.0 -3.68809558977e-05 -3.94436481262e-05 7.90548017089e-05
116 1 9.068977001 10.0539358 3.541396271 0.0 0.0 0.0 0.000118954955062 5.38889589099e-05 0.000130064060694
117 1 12.787381802 3.613470479 10.478246411 0.0 0.0 0.0 8.23985244032e-05 -5.53605765133e-05 6.48741573762e-05
118 1 5.35057243 3.613470479 10.478246411 0.0 0.0 0.0 -0.000105308421465 -2.0386529247e-05 0.000414411066688
119 1 16.505786416 10.053935793 10.478246411 0.0 0.0 0.0 -4.35135636671e-05 -4.61234672384e-05 2.76216133929e-05
120 1 9.068977044 10.053935793 10.478246411 0.0 0.0 0.0 0.000130516260596 5.52656967514e-05 -2.98833629512e-05
121 2 16.042954883 2.025349614 3.848821218 0.0 0.0 0.0 -5.17268414764e-05 0.000310217054591 -0.000106054333988
122 2 8.606145512 2.025349614 3.848821218 0.0 0.0 0.0 -0.000429059381326 0.000185311465981 0.000588443276759
123 2 19.761359497 8.465814928 3.848821218 0.0 0.0 0.0 1.84753379737e-05 -0.000123261432738 4.08596798082e-05
124 2 12.324550126 8.465814928 3.848821218 0.0 0.0 0.0 8.49174626476e-06 -0.000286993277632 -0.000163228497531
125 2 16.042954927 2.025349607 10.785671358 0.0 0.0 0.0 -2.84893149205e-06 0.000204351373976 8.64181619059e-05
126 2 8.606145555 2.025349607 10.785671358 0.0 0.0 0.0 -0.000154635369461 0.000147342434701 -0.000320916203843
127 2 19.761359541 8.46581492 10.785671358 0.0 0.0 0.0 1.44183934734e-05 -8.73658332581e-05 -1.61506693996e-05
128 2 12.324550169 8.46581492 10.785671358 0.0 0.0 0.0 2.05696843127e-05 -0.000185119156466 0.000162876604088
129 1 16.07393341 2.079010738 4.819894452 0.0 0.0 0.0 0.000110951530926 -0.000185576153322 0.000104221596204
130 1 8.637124038 2.079010738 4.819894452 0.0 0.0 0.0 0.000565740348872 -6.11749697969e-05 -0.000388507651027
131 1 19.792338024 8.519476052 4.819894452 0.0 0.0 0.0 2.11532000305e-05 0.000126573019642 2.01117883046e-05
132 1 12.355528653 8.519476052 4.819894452 0.0 0.0 0.0 3.96270645104e-05 0.000253672430319 0.000113555535704
133 1 16.073933453 2.079010731 11.756744592 0.0 0.0 0.0 3.17406649417e-05 -2.20801691185e-05 1.26429755641e-05
134 1 8.637124082 2.079010731 11.756744592 0.0 0.0 0.0 4.75989246322e-05 -1.84489541348e-05 0.000105628900545
135 1 19.792338067 8.519476045 11.756744592 0.0 0.0 0.0 2.6351248477e-05 7.18317187105e-05 4.27374470856e-05
136 1 12.355528696 8.519476045 11.756744592 0.0 0.0 0.0 2.6979428194e-05 9.03233102412e-05 -9.44014982718e-06
137 1 1.632167798 2.826994038 3.541396624 0.0 0.0 0.0 -3.36288933873e-05 -5.54457938731e-05 5.74669404732e-05
138 1 9.06897717 2.826994038 3.541396624 0.0 0.0 0.0 0.000164960322432 8.63392491112e-05 -9.48837702939e-05
139 1 5.350572412 9.267459352 3.541396624 0.0 0.0 0.0 5.34070273194e-05 0.000105544219847 5.37430175108e-05
140 1 12.787381784 9.267459352 3.541396624 0.0 0.0 0.0 -1.04485293895e-05 0.000197015783189 0.000195174594323
141 1 1.632167841 2.826994031 10.478246764 0.0 0.0 0.0 -2.60519040386e-05 -5.12538684607e-05 5.01383091247e-05
142 1 9.068977213 2.826994031 10.478246764 0.0 0.0 0.0 0.000173232802338 7.43724167701e-05 0.000218492543051
143 1 5.350572456 9.267459345 10.478246764 0.0 0.0 0.0 5.3049436933e-05 0.00010684570323 5.59377177763e-05
144 1 12.787381827 9.267459345 10.478246764 0.0 0.0 0.0 -1.6455170884e-05 0.000193961572866 -9.17387757776e-05
145 2 12.258736453 12.880930313 6.469757221 0.0 0.0 0.0 0.189133410056 0.302892342763 0.110380386182
146 2 19.695545825 12.880930313 6.469757221 0.0 0.0 0.0 -0.000255956617987 8.70960802995e-05 -4.61811840159e-05
147 2 8.540331839 6.440464999 6.469757221 0.0 0.0 0.0 -0.000308615415551 -0.000449638629948 -3.32604078643e-05
148 2 15.97714121 6.440464999 6.469757221 0.0 0.0 0.0 0.000144147473583 -0.000137237215454 -4.52005513833e-05
149 2 12.258736496 12.880930306 13.40660736 0.0 0.0 0.0 3.89636156591e-05 0.000141468779013 -3.05465247889e-05
150 2 19.695545868 12.880930306 13.40660736 0.0 0.0 0.0 -0.000106693866182 2.99392147691e-05 -4.85967482344e-05
151 2 8.540331882 6.440464992 13.40660736 0.0 0.0 0.0 -0.000110211880834 -0.00011275778943 -5.49054382626e-05
152 2 15.977141254 6.440464992 13.40660736 0.0 0.0 0.0 1.41620706835e-05 -3.75636214271e-05 -4.90941026665e-05
153 1 5.336166141 0.775615099 6.788243965 0.0 0.0 0.0 -0.186910594246 -0.296243827665 -0.108248169229
154 1 12.767975512 0.766954845 6.788243965 0.0 0.0 0.0 6.58432520362e-05 -2.82263231775e-05 -2.44946687846e-05
155 1 9.049570755 7.207420159 6.788243965 0.0 0.0 0.0 4.57572583732e-05 0.000205655337723 -1.95667771555e-05
156 1 16.486380127 7.207420159 6.788243965 0.0 0.0 0.0 -0.000161419230035 0.000105469866089 -2.41424930997e-05
157 1 5.331166184 0.766954838 13.725094105 0.0 0.0 0.0 -0.000112295194321 -7.22581977009e-05 -1.72780856945e-05
158 1 12.767975556 0.766954838 13.725094105 0.0 0.0 0.0 -2.51121656632e-05 -4.64585879219e-07 -2.41817124568e-05
159 1 9.049570798 7.207420151 13.725094105 0.0 0.0 0.0 -2.6435603693e-05 7.80470884947e-05 -2.65818147238e-05
160 1 16.48638017 7.207420151 13.725094105 0.0 0.0 0.0 -9.40875659301e-05 4.02763319895e-05 -2.4360611128e-05
161 1 16.486380702 5.673510068 6.788243516 0.0 0.0 0.0 -0.000193991379516 2.60106200549e-05 -2.32253940685e-05
162 1 9.04957133 5.673510068 6.788243516 0.0 0.0 0.0 0.000131717453705 0.000214402595737 -2.10217376908e-05
163 1 20.204785316 12.113975382 6.788243516 0.0 0.0 0.0 3.16530723423e-05 -2.66466341637e-05 -2.12560053723e-05
164 1 12.767975944 12.113975382 6.788243516 0.0 0.0 0.0 0.00501760583029 0.0044496079336 0.00373115389439
165 1 16.486380745 5.673510061 13.725093655 0.0 0.0 0.0 -9.22512868886e-05 -1.17691361139e-05 -2.10543190565e-05
166 1 9.049571373 5.673510061 13.725093655 0.0 0.0 0.0 -2.61482149041e-05 2.64157390095e-05 -2.20881173072e-05
167 1 20.204785359 12.113975375 13.725093655 0.0 0.0 0.0 -3.22535408714e-05 -2.09702352895e-05 -2.20357776843e-05
168 1 12.767975987 12.113975375 13.725093655 0.0 0.0 0.0 -0.000100947373013 -5.9469269823e-05 -2.00264133279e-05
169 2 12.462655523 4.175912014 6.46975888 0.0 0.0 0.0 -0.000159598061377 -0.000127190431653 -4.96254567724e-05
170 2 5.025846151 4.175912014 6.46975888 0.0 0.0 0.0 0.000954271704024 -0.00192199486116 0.000168565018324
171 2 16.181060137 10.616377328 6.46975888 0.0 0.0 0.0 0.000559876423646 3.86674370584e-05 -7.43580847122e-05
172 2 8.744250765 10.616377328 6.46975888 0.0 0.0 0.0 -0.00049834802472 -0.00039754461237 -0.000111768488296
173 2 12.462655566 4.175912007 13.406609019 0.0 0.0 0.0 -3.90119199136e-05 -7.19081030716e-05 -5.67880001389e-05
174 2 5.025846194 4.175912007 13.406609019 0.0 0.0 0.0 9.10803471774e-05 -2.65740593687e-05 -8.00481839305e-05
175 2 16.18106018 10.616377321 13.406609019 0.0 0.0 0.0 8.64660223495e-05 -4.14830085108e-06 -4.98222894202e-05
176 2 8.744250808 10.616377321 13.406609019 0.0 0.0 0.0 -6.0152822833e-05 -8.46553533625e-05 -3.62901756182e-05
177 1 4.107023344 4.233448053 6.788243333 0.0 0.0 0.0 -0.000674147400544 0.000296291243675 4.18721976073e-06
178 1 11.543832716 4.233448053 6.788243333 0.0 0.0 0.0 0.000164642985826 1.07960091991e-05 -2.0598383083e-05
179 1 7.825427958 10.673913367 6.788243333 0.0 0.0 0.0 0.00017992978116 2.85008688276e-05 -2.21446720637e-05
180 1 15.26223733 10.673913367 6.788243333 0.0 0.0 0.0 -0.000532616564301 0.000110948411328 -1.82537697189e-05
181 1 4.107023387 4.233448046 13.725093473 0.0 0.0 0.0 -3.12963807771e-05 -8.01588830227e-05 -2.10788689767e-05
182 1 11.543832759 4.233448046 13.725093473 0.0 0.0 0.0 5.23773177039e-05 -4.20940125601e-05 -2.00061146737e-05
183 1 7.825428001 10.67391336 13.725093473 0.0 0.0 0.0 5.39364326341e-05 -3.8545030682e-05 -1.95629255023e-05
184 1 15.262237373 10.67391336 13.725093473 0.0 0.0 0.0 -3.01144862865e-05 -7.83953487299e-05 -1.98133584258e-05
185 1 12.872237203 5.00040447 6.78824545 0.0 0.0 0.0 8.43929069339e-05 1.32319947171e-05 -2.81547639239e-05
186 1 5.435427832 5.00040447 6.78824545 0.0 0.0 0.0 2.17837330243e-05 0.000500381130153 1.72910549856e-06
187 1 16.590641818 11.440869783 6.78824545 0.0 0.0 0.0 -8.60865164796e-05 -0.000278642160617 -3.76066239343e-05
188 1 9.153832446 11.440869783 6.78824545 0.0 0.0 0.0 0.000532695647247 0.000202573444407 1.59431716378e-06
189 1 12.872237247 5.000404462 13.72509559 0.0 0.0 0.0 6.16355676437e-05 -2.57919270947e-05 -2.96409463819e-05
190 1 5.435427875 5.000404462 13.72509559 0.0 0.0 0.0 2.90007410286e-05 -2.58924531384e-05 -3.01676380131e-05
191 1 16.590641861 11.440869776 13.72509559 0.0 0.0 0.0 2.73798893087e-05 -8.46827436911e-05 -2.69765723622e-05
192 1 9.153832489 11.440869776 13.72509559 0.0 0.0 0.0 7.78530368326e-05 -5.36690510232e-05 -3.01731661012e-05
193 2 1.307441393 2.264553585 6.469759523 0.0 0.0 0.0 -0.000202233247117 0.000618554739995 -7.76666318647e-05
194 2 8.744250764 2.264553585 6.469759523 0.0 0.0 0.0 -0.0019267029574 3.1775589009e-05 0.000148988363388
195 2 5.025846007 8.705018899 6.469759523 0.0 0.0 0.0 2.24362496376e-05 -0.000168181980888 -4.9372964732e-05
196 2 12.462655379 8.705018899 6.469759523 0.0 0.0 0.0 -9.13802769157e-06 -0.000538764384545 -0.000108541101251
197 2 1.307441436 2.264553578 13.406609663 0.0 0.0 0.0 1.5009728168e-05 0.000125699849588 -4.95386381097e-05
198 2 8.744250808 2.264553578 13.406609663 0.0 0.0 0.0 -1.15271576662e-05 0.000115019093596 -7.93100565663e-05
199 2 5.02584605 8.705018892 13.406609663 0.0 0.0 0.0 1.44703817428e-05 -2.54867270123e-05 -5.70355448139e-05
200 2 12.462655422 8.705018892 13.406609663 0.0 0.0 0.0 1.93372476657e-05 -4.61739872339e-05 -3.69342241358e-05
201 1 1.717022388 1.440060952 6.788246651 0.0 0.0 0.0 0.000532616150727 -0.000459321415076 -3.1984362921e-05
202 1 9.15383176 1.440060952 6.788246651 0.0 0.0 0.0 0.000543643846953 -0.000295472895919 -1.00381094771e-05
203 1 5.435427002 7.880526266 6.788246651 0.0 0.0 0.0 4.77173610492e-05 0.00022590763871 -3.25895415813e-05
204 1 12.872236374 7.880526266 6.788246651 0.0 0.0 0.0 2.89461638443e-05 0.000232727960503 -3.33419573555e-05
205 1 1.717022431 1.440060945 13.725096791 0.0 0.0 0.0 5.01998156376e-05 1.08930621812e-06 -3.17604574602e-05
206 1 9.153831803 1.440060945 13.725096791 0.0 0.0 0.0 5.8857917854e-05 7.40315827081e-06 -3.31986209143e-05
207 1 5.435427045 7.880526258 13.725096791 0.0 0.0 0.0 4.93755974717e-05 9.72474974568e-05 -3.22910414654e-05
208 1 12.872236417 7.880526258 13.725096791 0.0 0.0 0.0 4.34578194858e-05 9.56320333312e-05 -3.18818343963e-05
209 1 15.262237079 2.207018097 6.788243067 0.0 0.0 0.0 0.000107105522537 -4.01897985972e-05 -2.08147354979e-05
210 1 7.825427708 2.207018097 6.788243067 0.0 0.0 0.0 0.00250850701384 0.000696192794284 -2.33532312435e-05
211 1 18.980641693 8.647483411 6.788243067 0.0 0.0 0.0 -3.30051861297e-05 0.000134705139088 -1.64005462212e-05
212 1 11.543832322 8.647483411 6.788243067 0.0 0.0 0.0 0.000106692736485 0.000350078080379 -5.30400554984e-06
213 1 15.262237122 2.207018089 13.725093207 0.0 0.0 0.0 2.8573819973e-05 3.33198744454e-05 -1.55066573983e-05
214 1 7.825427751 2.207018089 13.725093207 0.0 0.0 0.0 3.1649100086e-06 1.07379994227e-05 -1.5432460989e-05
215 1 18.980641736 8.647483403 13.725093207 0.0 0.0 0.0 -2.07706353073e-06 8.34668355287e-05 -1.65762485417e-05
216 1 11.543832365 8.647483403 13.725093207 0.0 0.0 0.0 2.85590534439e-05 0.000110487330028 -1.75427009879e-05
217 2 10.05169036 12.880930562 3.001331049 0.0 0.0 0.0 -0.000164946185937 0.000148021083145 -0.000477191460668
218 2 17.488499731 12.880930562 3.001331049 0.0 0.0 0.0 6.64251997479e-06 0.000181344127365 4.21728686457e-05
219 2 6.333285745 6.440465248 3.001331049 0.0 0.0 0.0 4.19493015993e-05 -0.000228401257307 0.000114494013224
220 2 13.770095117 6.440465248 3.001331049 0.0 0.0 0.0 5.83359691189e-05 -0.000112898542489 -6.9722256572e-05
221 2 10.051690403 12.880930555 9.938181189 0.0 0.0 0.0 -0.000316089899166 0.000216685570823 0.000575619006596
222 2 17.488499774 12.880930555 9.938181189 0.0 0.0 0.0 -2.55377424305e-05 0.000225691445521 -0.000147692090659
223 2 6.333285789 6.440465241 9.938181189 0.0 0.0 0.0 3.65100664014e-05 -0.000289385956014 -0.000218196630287
224 2 13.77009516 6.440465241 9.938181189 0.0 0.0 0.0 6.3262826371e-05 -0.000135525132206 -1.26953310127e-05
225 1 13.26085702 5.67351034 3.319819519 0.0 0.0 0.0 8.28121841577e-05 2.69988498857e-05 -2.86678965122e-05
226 1 5.824047648 5.67351034 3.319819519 0.0 0.0 0.0 2.85166941506e-05 0.000124291374045 -0.000180851381541
227 1 16.979261634 12.113975653 3.319819519 0.0 0.0 0.0 1.82879578599e-05 -0.000115769064686 -3.69358743317e-05
228 1 9.542452262 12.113975653 3.319819519 0.0 0.0 0.0 0.000216286545759 2.48565701566e-05 0.000153630688953
229 1 13.260857063 5.673510332 10.256669659 0.0 0.0 0.0 8.28411204438e-05 2.69875175271e-05 -2.91293486766e-05
230 1 5.824047691 5.673510332 10.256669659 0.0 0.0 0.0 2.85757105739e-05 0.000124266760762 0.00012303398172
231 1 16.979261677 12.113975646 10.256669659 0.0 0.0 0.0 1.83291900522e-05 -0.000115798766945 -2.08658246289e-05
232 1 9.542452305 12.113975646 10.256669659 0.0 0.0 0.0 0.000216287194288 2.47102386842e-05 -0.00021150049908
233 1 2.105642892 0.766955018 3.319818703 0.0 0.0 0.0 0.000150489460275 -0.000143814641261 0.000133854822458
234 1 9.542452263 0.766955018 3.319818703 0.0 0.0 0.0 0.000136120102834 -0.000108633488134 -0.000136160923538
235 1 5.824047506 7.207420332 3.319818703 0.0 0.0 0.0 6.06995773602e-05 0.000119936515657 -6.39620619678e-05
236 1 13.260856878 7.207420332 3.319818703 0.0 0.0 0.0 5.29605218188e-05 0.000108932614367 1.04675960741e-05
237 1 2.105642935 0.766955011 10.256668843 0.0 0.0 0.0 0.000123030801951 -0.000159741410025 -0.00016135640131
238 1 9.542452307 0.766955011 10.256668843 0.0 0.0 0.0 0.000144075155228 -0.00010398732214 8.94709935593e-05
239 1 5.824047549 7.207420325 10.256668843 0.0 0.0 0.0 6.13559443374e-05 0.000114130413934 1.12054739608e-05
240 1 13.260856921 7.207420325 10.256668843 0.0 0.0 0.0 5.04408483123e-05 0.000113694676942 -6.2650443484e-05
241 2 13.566178647 2.264553318 3.001331607 0.0 0.0 0.0 -0.000131943550774 9.80060780613e-05 -5.72327857223e-05
242 2 6.129369276 2.264553318 3.001331607 0.0 0.0 0.0 0.000189368956016 0.000446406067116 0.00068590548843
243 2 17.284583261 8.705018632 3.001331607 0.0 0.0 0.0 7.63002206697e-05 -2.969454667e-05 -5.18797528677e-05
244 2 9.84777389 8.705018632 3.001331607 0.0 0.0 0.0 -0.000146310358835 -0.000180684578224 -0.000131977107364
245 2 13.56617869 2.26455331 9.938181747 0.0 0.0 0.0 -0.00014958288281 0.00010746362041 -3.41627128477e-05
246 2 6.129369319 2.26455331 9.938181747 0.0 0.0 0.0 0.000191995004646 0.000478145056817 -0.00133322024812
247 2 17.284583305 8.705018624 9.938181747 0.0 0.0 0.0 9.24271487507e-05 -4.06794257942e-05 -3.99191514801e-05
248 2 9.847773933 8.705018624 9.938181747 0.0 0.0 0.0 -0.000179101449359 -0.000239101313879 5.66914304657e-05
249 1 14.485000752 2.20701716 3.319818255 0.0 0.0 0.0 2.95997224418e-05 7.54679376003e-06 -2.17311575674e-06
250 1 7.048191381 2.20701716 3.319818255 0.0 0.0 0.0 6.89021328432e-05 -5.8017396279e-05 -0.000478158801283
251 1 18.203405367 8.647482473 3.319818255 0.0 0.0 0.0 -4.77462323988e-05 0.000104953893484 -3.52217213746e-05
252 1 10.766595995 8.647482473 3.319818255 0.0 0.0 0.0 3.28632569442e-05 0.00019243837752 4.57140376722e-05
253 1 14.485000796 2.207017152 10.256668395 0.0 0.0 0.0 2.69573704172e-05 6.20349016505e-06 -4.93817327726e-05
254 1 7.048191424 2.207017152 10.256668395 0.0 0.0 0.0 9.71334002844e-05 -3.16661019544e-05 0.00036614465943
255 1 18.20340541 8.647482466 10.256668395 0.0 0.0 0.0 -4.54923055716e-05 0.000104026576244 -1.59660997825e-05
256 1 10.766596038 8.647482466 10.256668395 0.0 0.0 0.0 3.33196601461e-05 0.000202030974928 -0.000105731192073
257 1 5.719786092 1.440061854 3.319818129 0.0 0.0 0.0 -0.000355457294431 -0.000499736309521 -0.000198756161473
258 1 13.156595464 1.440061854 3.319818129 0.0 0.0 0.0 2.93299513086e-05 1.48376876799e-05 -2.24320375205e-05
259 1 9.438190706 7.880527168 3.319818129 0.0 0.0 0.0 2.26577018526e-05 0.0001607169942 -2.14645537504e-05
260 1 16.875000078 7.880527168 3.319818129 0.0 0.0 0.0 -0.000106573103559 9.34784870558e-05 -2.25118308965e-05
261 1 5.719786135 1.440061847 10.256668269 0.0 0.0 0.0 -0.000359901174049 -0.000496895437473 0.000152135139639
262 1 13.156595507 1.440061847 10.256668269 0.0 0.0 0.0 2.92296860067e-05 1.49932400553e-05 -2.39954742775e-05
263 1 9.438190749 7.880527161 10.256668269 0.0 0.0 0.0 2.28628347944e-05 0.000160551341572 -2.50682017928e-05
264 1 16.875000121 7.880527161 10.256668269 0.0 0.0 0.0 -0.000106801857432 9.33826205254e-05 -2.40799970383e-05
265 2 2.410964342 4.175911908 3.001332195 0.0 0.0 0.0 0.000167924870982 1.45340574285e-05 5.0142758351e-05
266 2 9.847773713 4.175911908 3.001332195 0.0 0.0 0.0 -0.000214779727807 -0.000154157555782 0.000103091480089
267 2 6.129368956 10.616377222 3.001332195 0.0 0.0 0.0 -0.000129074767853 -9.81448744674e-05 -7.85063728863e-05
268 2 13.566178327 10.616377222 3.001332195 0.0 0.0 0.0 0.000213704603502 -0.000154082788783 -0.000447773486028
269 2 2.410964385 4.175911901 9.938182334 0.0 0.0 0.0 0.000226710892416 8.16038807616e-06 -0.000167583489706
270 2 9.847773757 4.175911901 9.938182334 0.0 0.0 0.0 -0.000263906728073 -0.000187000553706 -0.000214912481535
271 2 6.129368999 10.616377215 9.938182334 0.0 0.0 0.0 -0.000152038809984 -0.0001060169225 -1.27154975602e-05
272 2 13.566178371 10.616377215 9.938182334 0.0 0.0 0.0 0.000347387201843 -0.000243801682023 0.000520982169055