ITEM: TIMESTEP
0
ITEM: NUMBER OF ATOMS
288
ITEM: BOX BOUNDS xy xz yz xx yy zz
0.0 14.873618743 7.436809228
0.0 12.880930628 8.6e-08
0.0 13.87370028 -1.5e-08
ITEM: ATOMS id type x y z vx vy vz fx fy fz
1 2 2.338671397 1.12e-07 0.390392751 0.0 0.0 0.0 0.0531300483129 3.25556750419e-07 -0.601519043937
2 2 9.775480768 1.12e-07 0.380392751 0.0 0.0 0.0 2.86390311688e-05 4.98165661143e-07 -0.000279867978133
3 2 6.057076011 6.440465426 0.380392751 0.0 0.0 0.0 2.86241350129e-05 4.97435314245e-07 -0.000279873814874
4 2 13.493885382 6.440465426 0.380392751 0.0 0.0 0.0 2.86380260247e-05 4.97375335331e-07 -0.000279868598161
5 2 2.33867144 1.04e-07 7.317242891 0.0 0.0 0.0 2.87150669769e-05 5.01236581463e-07 0.00120440745738
6 2 9.775480812 1.04e-07 7.317242891 0.0 0.0 0.0 2.87156163341e-05 5.03794945931e-07 0.000261823599696
7 2 6.057076054 6.440465418 7.317242891 0.0 0.0 0.0 2.87136013516e-05 5.00561429112e-07 0.000261824200781
8 2 13.493885426 6.440465418 7.317242891 0.0 0.0 0.0 2.86687941028e-05 5.01769529181e-07 0.000261837166375
9 1 2.400632363 4.61e-07 1.351465958 0.0 0.0 0.0 0.0624017116063 -1.69896914905e-06 0.432825698687
10 1 9.837441735 4.61e-07 1.351465958 0.0 0.0 0.0 3.72374741934e-05 -1.8506548383e-06 0.00016603693479
11 1 6.119036977 6.440465774 1.351465958 0.0 0.0 0.0 4.08740216027e-05 -3.94287136742e-06 0.000165899763023
12 1 13.555846349 6.440465774 1.351465958 0.0 0.0 0.0 4.08685489921e-05 2.46899970697e-07 0.000165897500497
13 1 2.400632406 4.53e-07 8.288316098 0.0 0.0 0.0 3.45651144896e-05 -1.84972247015e-06 -0.000633416464018
14 1 9.837441778 4.53e-07 8.288316098 0.0 0.0 0.0 4.35184662494e-05 -1.84975670331e-06 -7.40756169516e-05
15 1 6.11903702 6.440465767 8.288316098 0.0 0.0 0.0 4.15389994307e-05 -7.06860115191e-07 -7.3991050171e-05
16 1 13.555846392 6.440465767 8.288316098 0.0 0.0 0.0 4.1539298866e-05 -2.99326199466e-06 -7.39914187631e-05
17 1 10.701141082 12.880930558 0.072968506 0.0 0.0 0.0 -0.108100340705 4.72015381471e-07 0.0896543787252
18 1 18.137950453 12.880930558 0.072968506 0.0 0.0 0.0 3.9497216722e-05 4.34736414954e-07 0.00021945522523
19 1 6.982736468 6.440465244 0.072968506 0.0 0.0 0.0 5.92300302034e-05 -1.00203306431e-05 0.000201272763885
20 1 14.419545839 6.440465244 0.072968506 0.0 0.0 0.0 5.92276325623e-05 1.08901159353e-05 0.000201269991909
21 1 10.701141125 12.880930551 7.009818646 0.0 0.0 0.0 3.20470867094e-05 4.32119497127e-07 -0.000526956462323
22 1 18.137950497 12.880930551 7.009818646 0.0 0.0 0.0 7.20226659458e-05 4.31839993603e-07 -7.63041724176e-05
23 1 6.982736511 6.440465237 7.009818646 0.0 0.0 0.0 6.22452441487e-05 5.88351535278e-06 -6.68209588452e-05
24 1 14.419545882 6.440465237 7.009818646 0.0 0.0 0.0 6.22834795617e-05 -5.02043739037e-06 -6.6831509062e-05
25 2 13.704282012 2.025348059 0.380394512 0.0 0.0 0.0 -1.1793931473e-05 2.66639091587e-05 -0.00106770199903
26 2 6.26747264 2.025348059 0.380394512 0.0 0.0 0.0 -1.66740750899e-05 2.66811595542e-05 -0.00106564902081
27 2 17.422686626 8.465813373 0.380394512 0.0 0.0 0.0 -1.42482403982e-05 2.80820318777e-05 -0.000217053417356
28 2 9.985877254 8.465813373 0.380394512 0.0 0.0 0.0 -1.42458604752e-05 3.0886132677e-05 -0.00106564652009
29 2 13.704282055 2.025348052 7.317244652 0.0 0.0 0.0 -1.48082486187e-05 2.84572814762e-05 0.000502684625191
30 2 6.267472684 2.025348052 7.317244652 0.0 0.0 0.0 -1.38077096646e-05 2.84742369605e-05 0.000501483022542
31 2 17.422686669 8.465813365 7.317244652 0.0 0.0 0.0 -1.43146754816e-05 2.81945854594e-05 0.000209817311984
32 2 9.985877298 8.465813365 7.317244652 0.0 0.0 0.0 -1.43179776635e-05 2.76104619448e-05 0.000501475447666
33 1 13.673300338 2.079010187 1.351467718 0.0 0.0 0.0 0.000389433488572 -0.000200245470318 0.000458674867853
34 1 6.236490966 2.079010187 1.351467718 0.0 0.0 0.0 -0.000393280609746 -0.000181375104466 0.000430008995573
35 1 17.391704952 8.519475501 1.351467718 0.0 0.0 0.0 -1.37176263808e-05 2.70801812365e-05 0.000130139096542
36 1 9.95489558 8.519475501 1.351467718 0.0 0.0 0.0 -1.83000489952e-05 0.000436274703719 0.000405416490834
37 1 13.673300381 2.07901018 8.288317858 0.0 0.0 0.0 -0.000105098898605 7.95065666673e-05 -0.000219509117922
38 1 6.236491009 2.07901018 8.288317858 0.0 0.0 0.0 7.47517511912e-05 7.7471351949e-05 -0.000210662573367
39 1 17.391704995 8.519475493 8.288317858 0.0 0.0 0.0 -1.47785602437e-05 2.88681691526e-05 -5.93146287371e-05
40 1 9.954895623 8.519475493 8.288317858 0.0 0.0 0.0 -1.34094116273e-05 -7.15653926813e-05 -0.000202935051813
41 1 13.241451457 2.826992613 0.072968839 0.0 0.0 0.0 -0.000125524234371 0.000125340296832 0.000300475056113
42 1 5.804642085 2.826992613 0.072968839 0.0 0.0 0.0 0.000122918907225 0.000190710362502 0.0005295078165
43 1 16.959856071 9.267457927 0.072968839 0.0 0.0 0.0 -2.64610861375e-05 5.58751691868e-05 0.000170351926497
44 1 9.523046699 9.267457927 0.072968839 0.0 0.0 0.0 -7.64411549188e-05 -0.000363490349872 0.00104237026882
45 1 13.2414515 2.826992606 7.009818978 0.0 0.0 0.0 -1.13818215899e-06 4.01283299704e-05 -0.000120815994269
46 1 5.804642128 2.826992606 7.009818978 0.0 0.0 0.0 -6.49323899898e-05 3.13868887776e-05 -0.000183833182941
47 1 16.959856114 9.26745792 7.009818978 0.0 0.0 0.0 -3.32763560649e-05 6.30735255221e-05 -4.79178268409e-05
48 1 9.523046743 9.26745792 7.009818978 0.0 0.0 0.0 -2.48901767252e-05 0.000114433496146 -0.000275691317644
49 2 17.422687622 4.415117298 0.380394729 0.0 0.0 0.0 -1.45055176199e-05 -3.11883697455e-05 -0.00106468325919
50 2 9.985878251 4.415117298 0.380394729 0.0 0.0 0.0 -1.45092081058e-05 -2.83858114922e-05 -0.000216088617389
51 2 21.141092236 10.855582612 0.380394729 0.0 0.0 0.0 -1.20384195818e-05 -2.69521471461e-05 -0.00106673404115
52 2 13.704282865 10.855582612 0.380394729 0.0 0.0 0.0 -1.69368772341e-05 -2.6985052597e-05 -0.00106468098496
53 2 17.422687665 4.415117291 7.317244869 0.0 0.0 0.0 -1.45581932994e-05 -2.78931899074e-05 0.000502443327863
54 2 9.985878294 4.415117291 7.317244869 0.0 0.0 0.0 -1.45750253086e-05 -2.85057925619e-05 0.000210784472902
55 2 21.14109228 10.855582605 7.317244869 0.0 0.0 0.0 -1.50902077258e-05 -2.88013657985e-05 0.000503641105205
56 2 13.704282908 10.855582605 7.317244869 0.0 0.0 0.0 -1.40592927652e-05 -2.87957807465e-05 0.000502438445021
57 1 2.518088606 4.36145465 1.351467896 0.0 0.0 0.0 -2.39032360522e-05 -0.000434332009677 0.000406698827426
58 1 9.954897977 4.36145465 1.351467896 0.0 0.0 0.0 -1.93168316201e-05 -2.5135377357e-05 0.000131419763229
59 1 6.23649322 10.801919964 1.351467896 0.0 0.0 0.0 0.000383831853234 0.000202188359093 0.000459956905069
60 1 13.673302591 10.801919964 1.351467896 0.0 0.0 0.0 -0.000398879872869 0.000183318974421 0.00043128820574
61 1 2.518088649 4.361454643 8.288318036 0.0 0.0 0.0 -1.90129449381e-05 7.350877443e-05 -0.000201649172086
62 1 9.95489802 4.361454643 8.288318036 0.0 0.0 0.0 -2.03750698058e-05 -2.69209287707e-05 -5.80312226673e-05
63 1 6.236493263 10.801919957 8.288318036 0.0 0.0 0.0 -0.000110694817207 -7.75586247417e-05 -0.000218225670643
64 1 13.673302635 10.801919957 8.288318036 0.0 0.0 0.0 6.91490220798e-05 -7.55272088512e-05 -0.000209376716589
65 1 16.959856167 3.613473172 0.07296928 0.0 0.0 0.0 -7.41623523692e-05 0.00036250251949 0.00104240363847
66 1 9.523046796 3.613473172 0.07296928 0.0 0.0 0.0 -2.41814125111e-05 -5.6861541185e-05 0.000170383545011
67 1 20.678260782 10.053938486 0.07296928 0.0 0.0 0.0 -0.000123256088817 -0.000126341763308 0.000300503797184
68 1 13.24145141 10.053938486 0.07296928 0.0 0.0 0.0 0.000125198264073 -0.00019169701003 0.000529540089898
69 1 16.959856211 3.613473164 7.00981942 0.0 0.0 0.0 -2.2626274601e-05 -0.000115442872697 -0.000275670952072
70 1 9.523046839 3.613473164 7.00981942 0.0 0.0 0.0 -3.10002300923e-05 -6.4065217495e-05 -4.78952174384e-05
71 1 20.678260825 10.053938478 7.00981942 0.0 0.0 0.0 1.15243030296e-06 -4.1090986443e-05 -0.000120784135615
72 1 13.241451453 10.053938478 7.00981942 0.0 0.0 0.0 -6.26528147955e-05 -3.2367574823e-05 -0.000183803107287
73 2 5.098138192 9.1e-08 3.848820961 0.0 0.0 0.0 0.00159104340423 -9.67134807774e-07 0.00136311103377
74 2 12.534947564 9.1e-08 3.848820961 0.0 0.0 0.0 -0.000518434475824 -9.69863461986e-07 0.00014368953111
75 2 8.816542806 6.440465404 3.848820961 0.0 0.0 0.0 -4.64370972856e-05 -0.00016262070029 3.84683363322e-05
76 2 16.253352178 6.440465404 3.848820961 0.0 0.0 0.0 -4.64433309116e-05 0.000160703933654 3.84757072842e-05
77 2 5.098138235 8.3e-08 10.785671101 0.0 0.0 0.0 -0.00164412445971 -9.65527508659e-07 0.00136246432983
78 2 12.534947607 8.3e-08 10.785671101 0.0 0.0 0.0 0.000456242302258 -9.65622577231e-07 0.000145663136744
79 2 8.816542849 6.440465397 10.785671101 0.0 0.0 0.0 -1.48330368273e-05 0.000160515852688 3.99120552338e-05
80 2 16.253352221 6.440465397 10.785671101 0.0 0.0 0.0 -1.48394992796e-05 -0.000162446219246 3.99108519742e-05
81 1 12.472986142 12.880930033 4.819894401 0.0 0.0 0.0 -0.000329544231004 1.94573699159e-06 -0.000490728729875
82 1 19.909795513 12.880930033 4.819894401 0.0 0.0 0.0 0.000124586814698 1.9457303134e-06 -0.000143206191216
83 1 8.754581528 6.440464719 4.819894401 0.0 0.0 0.0 -3.69312225257e-05 6.31508625082e-05 -5.43877351104e-05
84 1 16.191390899 6.440464719 4.819894401 0.0 0.0 0.0 -3.69264476693e-05 -5.92642071369e-05 -5.43898833635e-05
85 1 12.472986185 12.880930026 11.756744541 0.0 0.0 0.0 0.00161097576843 1.94388798726e-06 -0.000514869965225
86 1 19.909795557 12.880930026 11.756744541 0.0 0.0 0.0 -0.000368447031348 1.94425806899e-06 0.00010371709313
87 1 8.754581571 6.440464712 11.756744541 0.0 0.0 0.0 -5.06470994013e-05 -8.77073641029e-05 9.28521426662e-05
88 1 16.191390943 6.440464712 11.756744541 0.0 0.0 0.0 -5.06472825702e-05 9.15957763156e-05 9.28523643834e-05
89 1 4.172478132 1.2e-08 3.541396305 0.0 0.0 0.0 -0.00162994774304 -2.66669983088e-07 -0.00176221769598
90 1 11.609287504 1.2e-08 3.541396305 0.0 0.0 0.0 5.37536080643e-05 -2.66281396696e-07 8.05934786236e-05
91 1 7.890882746 6.440465326 3.541396305 0.0 0.0 0.0 -5.59662971396e-05 5.65605975858e-05 7.45785776235e-05
92 1 15.327692118 6.440465326 3.541396305 0.0 0.0 0.0 -5.596493406e-05 -5.70982100014e-05 7.45751392212e-05
93 1 4.172478175 5e-09 10.478246445 0.0 0.0 0.0 0.000526638061854 -2.68115602538e-07 -0.00114033929466
94 1 11.609287547 5e-09 10.478246445 0.0 0.0 0.0 -0.000153770219674 -2.68064956732e-07 -6.91476252665e-06
95 1 7.890882789 6.440465319 10.478246445 0.0 0.0 0.0 -7.46059916832e-05 -4.69611947825e-05 6.80389497219e-06
96 1 15.327692161 6.440465319 10.478246445 0.0 0.0 0.0 -7.460389077e-05 4.64244181256e-05 6.80436489411e-06
97 2 12.324550744 4.415115375 3.848820709 0.0 0.0 0.0 -0.000118724759016 7.06855073777e-05 4.20169332513e-05
98 2 4.887741372 4.415115375 3.848820709 0.0 0.0 0.0 0.000256373864996 0.000397713906504 0.000146988869029
99 2 16.042955358 10.855580689 3.848820709 0.0 0.0 0.0 0.000160667821051 -9.06251413382e-05 4.20219021396e-05
100 2 8.606145986 10.855580689 3.848820709 0.0 0.0 0.0 -0.000800621419044 -0.00143306399216 0.001376580919
101 2 12.324550787 4.415115367 10.785670849 0.0 0.0 0.0 0.00014466722859 -0.000117976952565 4.346154126e-05
102 2 4.887741415 4.415115367 10.785670849 0.0 0.0 0.0 -0.000229799747136 -0.000444322914234 0.00014896327599
103 2 16.042955401 10.855580681 10.785670849 0.0 0.0 0.0 -0.00013440754983 4.31443768997e-05 4.345962778e-05
104 2 8.606146029 10.855580681 10.785670849 0.0 0.0 0.0 0.000822476220855 0.00137827419731 0.00137545238154
105 1 12.355530592 4.361455296 4.81989398 0.0 0.0 0.0 6.7833835734e-05 -6.4117415341e-05 -4.74709014499e-05
106 1 4.91872122 4.361455296 4.81989398 0.0 0.0 0.0 -4.93029821314e-05 -0.000165707349498 -0.000125540910513
107 1 16.073935206 10.801920609 4.81989398 0.0 0.0 0.0 -3.51534117173e-05 -8.1856571187e-06 -5.13333020203e-05
108 1 8.637125834 10.801920609 4.81989398 0.0 0.0 0.0 0.000185368135728 0.000214780913943 -0.000537372828244
109 1 12.355530635 4.361455288 11.75674412 0.0 0.0 0.0 -4.21584597683e-05 1.26506644783e-05 9.71937767323e-05
110 1 4.918721263 4.361455288 11.75674412 0.0 0.0 0.0 0.000164575858072 0.000221971437848 0.000112071326011
111 1 16.073935249 10.801920602 11.75674412 0.0 0.0 0.0 0.000109067410859 -6.99169657143e-05 9.78366719616e-05
112 1 8.637125877 10.801920602 11.75674412 0.0 0.0 0.0 -0.000922641154638 -0.00155922370796 -0.000663902796208
113 1 12.787381758 3.613470486 3.541396271 0.0 0.0 0.0 0.000173306641922 -0.000164275780977 6.31042126147e-05
114 1 5.350572387 3.613470486 3.541396271 0.0 0.0 0.0 -0.000213872441084 -0.0003352615247 1.58586122856e-05
115 1 16.505786372 10.0539358 3.541396271 0.0 0.0 0.0 4.68170897253e-07 -2.91821749285e-05 7.77525624668e-05
116 1 9.068977001 10.0539358 3.541396271 0.0 0.0 0.0 0.000217637911204 0.000834690167281 -0.000267757444068
117 1 12.787381802 3.613470479 10.478246411 0.0 0.0 0.0 -9.02878520121e-05 3.69569353786e-05 -2.10290615564e-05
118 1 5.35057243 3.613470479 10.478246411 0.0 0.0 0.0 0.00020921403135 0.000147655711017 -0.00010483359113
119 1 16.505786416 10.053935793 10.478246411 0.0 0.0 0.0 5.21763271352e-05 -7.56719723403e-05 1.75145960944e-05
120 1 9.068977044 10.053935793 10.478246411 0.0 0.0 0.0 -2.870703988e-05 -0.000504724321533 -0.000325767497063
121 2 16.042954883 2.025349614 3.848821218 0.0 0.0 0.0 -0.000799520773382 0.00143360339286 0.00137649330194
122 2 8.606145512 2.025349614 3.848821218 0.0 0.0 0.0 0.000161781482062 9.11778598875e-05 4.19261099983e-05
123 2 19.761359497 8.465814928 3.848821218 0.0 0.0 0.0 -0.000117606579364 -7.01227872622e-05 4.19281854009e-05
124 2 12.324550126 8.465814928 3.848821218 0.0 0.0 0.0 0.000257474516506 -0.000397172212312 0.000146906799091
125 2 16.042954927 2.025349607 10.785671358 0.0 0.0 0.0 0.000823575289051 -0.0013777130616 0.00137537142619
126 2 8.606145555 2.025349607 10.785671358 0.0 0.0 0.0 -0.000133289132941 -4.25642269499e-05 4.3375872149e-05
127 2 19.761359541 8.46581492 10.785671358 0.0 0.0 0.0 0.000145801494886 0.000118595550236 4.33676458953e-05
128 2 12.324550169 8.46581492 10.785671358 0.0 0.0 0.0 -0.000228661843638 0.000444949049611 0.000148876585399
129 1 16.07393341 2.079010738 4.819894452 0.0 0.0 0.0 0.000190169291337 -0.00021777520063 -0.000537257346952
130 1 8.637124038 2.079010738 4.819894452 0.0 0.0 0.0 -3.03502956591e-05 5.19172561539e-06 -5.12170227714e-05
131 1 19.792338024 8.519476052 4.819894452 0.0 0.0 0.0 7.2632623586e-05 6.11163751636e-05 -4.73575823732e-05
132 1 12.355528653 8.519476052 4.819894452 0.0 0.0 0.0 -4.45035669522e-05 0.00016270706209 -0.00012542816071
133 1 16.073933453 2.079010731 11.756744592 0.0 0.0 0.0 -0.000917839680435 0.0015562232792 -0.000663789194284
134 1 8.637124082 2.079010731 11.756744592 0.0 0.0 0.0 0.0001138664487 6.6916269583e-05 9.79467943917e-05
135 1 19.792338067 8.519476045 11.756744592 0.0 0.0 0.0 -3.73588257644e-05 -1.56550970191e-05 9.73045898069e-05
136 1 12.355528696 8.519476045 11.756744592 0.0 0.0 0.0 0.000169372819132 -0.000224978382734 0.000112179900885
137 1 1.632167798 2.826994038 3.541396624 0.0 0.0 0.0 0.000215767999113 -0.000832561335979 -0.000267650880147
138 1 9.06897717 2.826994038 3.541396624 0.0 0.0 0.0 -1.41216434476e-06 3.12975336528e-05 7.78664508182e-05
139 1 5.350572412 9.267459352 3.541396624 0.0 0.0 0.0 0.00017142609441 0.000166389449215 6.32125625411e-05
140 1 12.787381784 9.267459352 3.541396624 0.0 0.0 0.0 -0.000215742465774 0.000337391360668 1.59615031226e-05
141 1 1.632167841 2.826994031 10.478246764 0.0 0.0 0.0 -3.05804272658e-05 0.000506841294371 -0.000325659834899
142 1 9.068977213 2.826994031 10.478246764 0.0 0.0 0.0 5.02918499295e-05 7.77725315459e-05 1.76262280327e-05
143 1 5.350572456 9.267459345 10.478246764 0.0 0.0 0.0 -9.21875222248e-05 -3.48858889443e-05 -2.09091802625e-05
144 1 12.787381827 9.267459345 10.478246764 0.0 0.0 0.0 0.000207312820919 -0.000145585861644 -0.000104715692403
145 2 12.258736453 12.880930313 6.469757221 0.0 0.0 0.0 0.000147976134986 -7.04728079783e-07 0.00083742826317
146 2 19.695545825 12.880930313 6.469757221 0.0 0.0 0.0 -0.000154541303694 -7.24756136202e-07 0.000341107432024
147 2 8.540331839 6.440464999 6.469757221 0.0 0.0 0.0 -4.82136785752e-05 -4.54404205397e-05 0.000193569141232
148 2 15.97714121 6.440464999 6.469757221 0.0 0.0 0.0 -4.81754257108e-05 4.40260301555e-05 0.000193583730269
149 2 12.258736496 12.880930306 13.40660736 0.0 0.0 0.0 -0.0247906196697 -7.0111201299e-07 -0.000829520264772
150 2 19.695545868 12.880930306 13.40660736 0.0 0.0 0.0 0.000291492291361 -7.0195513904e-07 -0.000641107678839
151 2 8.540331882 6.440464992 13.40660736 0.0 0.0 0.0 -3.50906356911e-05 8.3892098736e-05 -0.000335301750323
152 2 15.977141254 6.440464992 13.40660736 0.0 0.0 0.0 -3.5096064757e-05 -8.53523214678e-05 -0.000335301739594
153 1 5.331166141 0.766954845 6.788243965 0.0 0.0 0.0 -0.000115363456187 -7.41163821627e-06 -0.000382082908018
154 1 12.767975512 0.766954845 6.788243965 0.0 0.0 0.0 -2.02203856107e-05 6.39003930325e-06 -0.000251715479881
155 1 9.049570755 7.207420159 6.788243965 0.0 0.0 0.0 -5.71002797629e-05 4.72163753625e-05 -0.000189001495591
156 1 16.486380127 7.207420159 6.788243965 0.0 0.0 0.0 -6.34201982635e-05 1.29596247767e-05 -0.000127971935527
157 1 5.331166184 0.766954838 13.725094105 0.0 0.0 0.0 0.000396290768948 0.000382441241896 0.00128093850221
158 1 12.767975556 0.766954838 13.725094105 0.0 0.0 0.0 -0.00022747528875 5.63074877884e-05 0.000396820508987
159 1 9.049570798 7.207420151 13.725094105 0.0 0.0 0.0 -7.19595773289e-05 -5.80440510346e-05 0.000210257930954
160 1 16.48638017 7.207420151 13.725094105 0.0 0.0 0.0 -5.77677468385e-05 2.29203866714e-05 9.28714932676e-05
161 1 16.486380702 5.673510068 6.788243516 0.0 0.0 0.0 -5.72307493022e-05 -4.73370297743e-05 -0.000186449007406
162 1 9.04957133 5.673510068 6.788243516 0.0 0.0 0.0 -6.35173434315e-05 -1.31052971853e-05 -0.000125402401884
163 1 20.204785316 12.113975382 6.788243516 0.0 0.0 0.0 -2.03453378923e-05 -6.50658058115e-06 -0.000249160571131
164 1 12.767975944 12.113975382 6.788243516 0.0 0.0 0.0 -0.000115476173689 7.277890078e-06 -0.000379520633645
165 1 16.486380745 5.673510061 13.725093655 0.0 0.0 0.0 -7.20831941322e-05 5.79280919129e-05 0.000212815180362
166 1 9.049571373 5.673510061 13.725093655 0.0 0.0 0.0 -5.78907241738e-05 -2.30355934995e-05 9.54279821103e-05
167 1 20.204785359 12.113975375 13.725093655 0.0 0.0 0.0 -0.000227583317848 -5.64495434403e-05 0.000399387597987
168 1 12.767975987 12.113975375 13.725093655 0.0 0.0 0.0 0.000396182611712 -0.000382581699522 0.00128350309548
169 2 12.462655523 4.175912014 6.46975888 0.0 0.0 0.0 -1.93747018513e-05 -1.57214632816e-05 0.000187239407047
170 2 5.025846151 4.175912014 6.46975888 0.0 0.0 0.0 7.19912932388e-05 5.35706787291e-05 0.000333230867093
171 2 16.181060137 10.616377328 6.46975888 0.0 0.0 0.0 5.78761044942e-05 -6.03069140735e-05 0.000187402734685
172 2 8.744250765 10.616377328 6.46975888 0.0 0.0 0.0 -7.90751034553e-05 -0.000207743489642 0.000834462460572
173 2 12.462655566 4.175912007 13.406609019 0.0 0.0 0.0 8.53957605807e-05 -9.14489672301e-05 -0.000341072511943
174 2 5.025846194 4.175912007 13.406609019 0.0 0.0 0.0 -0.000148509641103 -0.000329230185939 -0.000643024883076
175 2 16.18106018 10.616377321 13.406609019 0.0 0.0 0.0 -6.0699909928e-05 -7.26532248216e-06 -0.000341604041089
176 2 8.744250808 10.616377321 13.406609019 0.0 0.0 0.0 0.0104906817274 0.0218387642197 -0.000956925796655
177 1 4.107023344 4.233448053 6.788243333 0.0 0.0 0.0 1.42517104458e-06 -0.000104409897644 -0.000259271320609
178 1 11.543832716 4.233448053 6.788243333 0.0 0.0 0.0 1.980983543e-05 -6.24316477771e-05 -0.00012497966675
179 1 7.825427958 10.673913367 6.788243333 0.0 0.0 0.0 6.01452620933e-05 -2.52700483535e-05 -0.000364585469638
180 1 15.26223733 10.673913367 6.788243333 0.0 0.0 0.0 -1.27922858281e-05 -4.95253832219e-05 -0.00018166526059
181 1 4.107023387 4.233448046 13.725093473 0.0 0.0 0.0 7.48379536475e-05 0.000124636541392 0.000440466374228
182 1 11.543832759 4.233448046 13.725093473 0.0 0.0 0.0 5.77897430453e-06 -5.97340482323e-05 9.90945709523e-05
183 1 7.825428001 10.67391336 13.725093473 0.0 0.0 0.0 -0.000398694506405 -0.000188886214252 0.00114200056426
184 1 15.262237373 10.67391336 13.725093473 0.0 0.0 0.0 8.08717810174e-05 -8.98226009823e-05 0.000207616995546
185 1 12.872237203 5.00040447 6.78824545 0.0 0.0 0.0 5.40191656501e-05 -5.65508153644e-05 -0.000153043516648
186 1 5.435427832 5.00040447 6.78824545 0.0 0.0 0.0 3.98969786614e-05 -6.22561726033e-05 -0.000164759679576
187 1 16.590641818 11.440869783 6.78824545 0.0 0.0 0.0 4.08769518351e-05 -4.76881079958e-05 -0.000149683510953
188 1 9.153832446 11.440869783 6.78824545 0.0 0.0 0.0 6.68075680901e-05 -1.02056369514e-05 -0.000594066898727
189 1 12.872237247 5.000404462 13.72509559 0.0 0.0 0.0 3.45080355842e-05 -3.75991020805e-05 0.000121185025033
190 1 5.435427875 5.000404462 13.72509559 0.0 0.0 0.0 5.75462475039e-05 -3.47889851143e-05 0.00014209363732
191 1 16.590641861 11.440869776 13.72509559 0.0 0.0 0.0 5.98863533111e-05 -5.47535119941e-05 0.00011510778972
192 1 9.153832489 11.440869776 13.72509559 0.0 0.0 0.0 -0.00517804033701 -0.0100480619987 0.00669901418551
193 2 1.307441393 2.264553585 6.469759523 0.0 0.0 0.0 -8.13213188088e-05 0.000209110228166 0.000834398064033
194 2 8.744250764 2.264553585 6.469759523 0.0 0.0 0.0 5.56909536817e-05 6.16684900469e-05 0.000187328146379
195 2 5.025846007 8.705018899 6.469759523 0.0 0.0 0.0 -2.16134225323e-05 1.71216776577e-05 0.000187167942567
196 2 12.462655379 8.705018899 6.469759523 0.0 0.0 0.0 6.97397835291e-05 -5.21645266587e-05 0.000333153698864
197 2 1.307441436 2.264553578 13.406609663 0.0 0.0 0.0 0.010488441307 -0.021837377383 -0.000957020495913
198 2 8.744250808 2.264553578 13.406609663 0.0 0.0 0.0 -6.29441292506e-05 8.64573039503e-06 -0.000341685762591
199 2 5.02584605 8.705018892 13.406609663 0.0 0.0 0.0 8.31706086908e-05 9.27950007989e-05 -0.000341145061582
200 2 12.462655422 8.705018892 13.406609663 0.0 0.0 0.0 -0.000150740411179 0.000330582487836 -0.000643097197068
201 1 1.717022388 1.440060952 6.788246651 0.0 0.0 0.0 6.73099320679e-05 1.20140630874e-05 -0.000597393168949
202 1 9.15383176 1.440060952 6.788246651 0.0 0.0 0.0 4.13685244952e-05 4.95102072106e-05 -0.000153014639665
203 1 5.435427002 7.880526266 6.788246651 0.0 0.0 0.0 5.45223075093e-05 5.8341141216e-05 -0.000156363299015
204 1 12.872236374 7.880526266 6.788246651 0.0 0.0 0.0 4.04114306386e-05 6.40344585731e-05 -0.000168075107198
205 1 1.717022431 1.440060945 13.725096791 0.0 0.0 0.0 -0.00517752969204 0.0100498438454 0.00669571319404
206 1 9.153831803 1.440060945 13.725096791 0.0 0.0 0.0 6.03954852592e-05 5.6550357339e-05 0.000111787299409
207 1 5.435427045 7.880526258 13.725096791 0.0 0.0 0.0 3.50052338147e-05 3.94265945119e-05 0.000117853428898
208 1 12.872236417 7.880526258 13.725096791 0.0 0.0 0.0 5.80417899208e-05 3.66147570752e-05 0.000138763311902
209 1 15.262237079 2.207018097 6.788243067 0.0 0.0 0.0 5.81027341002e-05 2.34280634362e-05 -0.00036088614833
210 1 7.825427708 2.207018097 6.788243067 0.0 0.0 0.0 -1.48732622435e-05 4.76782498398e-05 -0.000177950809973
211 1 18.980641693 8.647483411 6.788243067 0.0 0.0 0.0 1.77668442227e-05 6.05841454906e-05 -0.000121277739191
212 1 11.543832322 8.647483411 6.788243067 0.0 0.0 0.0 -6.18660305087e-07 0.000102565159851 -0.000255569915281
213 1 15.262237122 2.207018089 13.725093207 0.0 0.0 0.0 -0.000400748108931 0.000187043919511 0.00114570459572
214 1 7.825427751 2.207018089 13.725093207 0.0 0.0 0.0 7.88198557383e-05 8.79803063729e-05 0.000211321638823
215 1 18.980641736 8.647483403 13.725093207 0.0 0.0 0.0 3.72536447801e-06 5.78929285906e-05 0.000102800025868
216 1 11.543832365 8.647483403 13.725093207 0.0 0.0 0.0 7.27859590268e-05 -0.000126478585919 0.000444171192977
217 2 10.05169036 12.880930562 3.001331049 0.0 0.0 0.0 0.00666727431594 1.17919269126e-06 0.0691935197472
218 2 17.488499731 12.880930562 3.001331049 0.0 0.0 0.0 4.977529376e-05 1.20118033802e-06 -0.000124351043331
219 2 6.333285745 6.440465248 3.001331049 0.0 0.0 0.0 4.93804183983e-05 1.45369093813e-06 -0.000124364830513
220 2 13.770095117 6.440465248 3.001331049 0.0 0.0 0.0 4.93810368163e-05 9.68776515389e-07 -0.000124365590973
221 2 10.051690403 12.880930555 9.938181189 0.0 0.0 0.0 5.43748043003e-05 1.17791956985e-06 0.00249798980733
222 2 17.488499774 12.880930555 9.938181189 0.0 0.0 0.0 4.87345371768e-05 1.18095648953e-06 7.44768068571e-05
223 2 6.333285789 6.440465241 9.938181189 0.0 0.0 0.0 4.90691169481e-05 8.36867695668e-07 7.45054566807e-05
224 2 13.77009516 6.440465241 9.938181189 0.0 0.0 0.0 4.91075469845e-05 1.51479990372e-06 7.44891180512e-05
225 1 13.26085702 5.67351034 3.319819519 0.0 0.0 0.0 0.000100031740397 -5.42132473804e-05 -8.8571532143e-06
226 1 5.824047648 5.67351034 3.319819519 0.0 0.0 0.0 1.15948974048e-05 -0.000100147784287 -9.52024324848e-06
227 1 16.979261634 12.113975653 3.319819519 0.0 0.0 0.0 2.22396775098e-05 -1.43269532688e-06 -8.78793471183e-06
228 1 9.542452262 12.113975653 3.319819519 0.0 0.0 0.0 0.000936312505073 0.00180119786268 -0.002447489661
229 1 13.260857063 5.673510332 10.256669659 0.0 0.0 0.0 2.8836949861e-05 1.25608086742e-05 -7.33939194511e-05
230 1 5.824047691 5.673510332 10.256669659 0.0 0.0 0.0 0.000101723241062 4.97850035859e-05 -8.10119759087e-05
231 1 16.979261677 12.113975646 10.256669659 0.0 0.0 0.0 9.35240457164e-05 -3.12722547965e-05 -7.20436747865e-05
232 1 9.542452305 12.113975646 10.256669659 0.0 0.0 0.0 -0.000159354058852 -0.00047547923049 -0.00136795867294
233 1 2.105642892 0.766955018 3.319818703 0.0 0.0 0.0 0.000935469601846 -0.0018011536968 -0.00244351354047
234 1 9.542452263 0.766955018 3.319818703 0.0 0.0 0.0 2.14081539242e-05 1.46286014392e-06 -4.81450055896e-06
235 1 5.824047506 7.207420332 3.319818703 0.0 0.0 0.0 9.92035703765e-05 5.42327306522e-05 -4.88818601961e-06
236 1 13.260856878 7.207420332 3.319818703 0.0 0.0 0.0 1.07666965207e-05 0.000100167301171 -5.55144799566e-06
237 1 2.105642935 0.766955011 10.256668843 0.0 0.0 0.0 -0.000160198759574 0.000475527104748 -0.00136397751853
238 1 9.542452307 0.766955011 10.256668843 0.0 0.0 0.0 9.26791393528e-05 3.13192691768e-05 -6.80640903136e-05
239 1 5.824047549 7.207420325 10.256668843 0.0 0.0 0.0 2.80070030914e-05 -1.25248592336e-05 -6.94211450695e-05
240 1 13.260856921 7.207420325 10.256668843 0.0 0.0 0.0 0.000100860468214 -4.97236626729e-05 -7.70226803197e-05
241 2 13.566178647 2.264553318 3.001331607 0.0 0.0 0.0 -0.000804891206229 0.000491635085441 -5.40990683319e-05
242 2 6.129369276 2.264553318 3.001331607 0.0 0.0 0.0 0.000755791903051 0.000488473421986 -5.49917055673e-05
243 2 17.284583261 8.705018632 3.001331607 0.0 0.0 0.0 -2.30591407498e-05 4.10245566995e-05 -0.000116886278359
244 2 9.84777389 8.705018632 3.001331607 0.0 0.0 0.0 -2.18314072415e-05 -0.000852635234847 -5.67435248541e-05
245 2 13.56617869 2.26455331 9.938181747 0.0 0.0 0.0 0.000416263723317 -0.000212387014579 0.000354895297586
246 2 6.129369319 2.26455331 9.938181747 0.0 0.0 0.0 -0.000460394711053 -0.000210885599172 0.000352729226161
247 2 17.284583305 8.705018624 9.938181747 0.0 0.0 0.0 -2.25353592087e-05 4.06012102008e-05 4.14968561941e-05
248 2 9.847773933 8.705018624 9.938181747 0.0 0.0 0.0 -2.33998463326e-05 0.000544456258691 0.000351535941212
249 1 14.485000752 2.20701716 3.319818255 0.0 0.0 0.0 0.000562105036398 -0.000413425512571 -0.000231636986786
250 1 7.048191381 2.20701716 3.319818255 0.0 0.0 0.0 -0.000190071707379 -1.05408439882e-05 -1.81705187129e-05
251 1 18.203405367 8.647482473 3.319818255 0.0 0.0 0.0 1.47093108273e-05 7.06774542865e-05 -5.69612802115e-06
252 1 10.766595995 8.647482473 3.319818255 0.0 0.0 0.0 -0.000131530646341 0.000466923053428 -8.05057869005e-05
253 1 14.485000796 2.207017152 10.256668395 0.0 0.0 0.0 -0.000346397870863 0.000331684646946 -0.000358783852149
254 1 7.048191424 2.207017152 10.256668395 0.0 0.0 0.0 0.000136781646088 0.000128008498845 -0.000103908861156
255 1 18.20340541 8.647482466 10.256668395 0.0 0.0 0.0 -4.24145138397e-05 5.2653807258e-05 -5.89816251965e-05
256 1 10.766596038 8.647482466 10.256668395 0.0 0.0 0.0 5.94731574001e-05 -0.000220556372029 -0.000203506162824
257 1 5.719786092 1.440061854 3.319818129 0.0 0.0 0.0 -0.000770294903416 -0.000258310377513 -0.00025197786213
258 1 13.156595464 1.440061854 3.319818129 0.0 0.0 0.0 0.000323131307333 -4.76792717796e-05 -6.36956229913e-05
259 1 9.438190706 7.880527168 3.319818129 0.0 0.0 0.0 -1.01220942801e-05 0.000243631688087 -1.83679758042e-05
260 1 16.875000078 7.880527168 3.319818129 0.0 0.0 0.0 -5.37606685954e-05 1.70768153374e-05 -3.25208487859e-06
261 1 5.719786135 1.440061847 10.256668269 0.0 0.0 0.0 0.000362568355737 0.000214126876825 -0.00037576865814
262 1 13.156595507 1.440061847 10.256668269 0.0 0.0 0.0 -0.000305239260675 0.000115307745482 -0.000181721261001
263 1 9.438190749 7.880527161 10.256668269 0.0 0.0 0.0 -6.88558202335e-05 -0.000128671490638 -0.00010697573054
264 1 16.875000121 7.880527161 10.256668269 0.0 0.0 0.0 -3.60148063886e-05 6.80089731558e-05 -5.63093970624e-05
265 2 2.410964342 4.175911908 3.001332195 0.0 0.0 0.0 -2.00735337396e-05 0.0008513305369 -5.76310477882e-05
266 2 9.847773713 4.175911908 3.001332195 0.0 0.0 0.0 -2.13081113612e-05 -4.23174166755e-05 -0.000117767453044
267 2 6.129368956 10.616377222 3.001332195 0.0 0.0 0.0 -0.000803110114417 -0.000492914134415 -5.49608135549e-05
268 2 13.566178327 10.616377222 3.001332195 0.0 0.0 0.0 0.000757591598449 -0.000489759890475 -5.58576914388e-05
269 2 2.410964385 4.175911901 9.938182334 0.0 0.0 0.0 -2.16037306565e-05 -0.000545712916685 0.000350689997344
270 2 9.847773757 4.175911901 9.938182334 0.0 0.0 0.0 -2.07911238809e-05 -4.18499157094e-05 4.06436502334e-05
271 2 6.129368999 10.616377215 9.938182334 0.0 0.0 0.0 0.000418013416821 0.000211101160593 0.000354029143706
272 2 13.566178371 10.616377215 9.938182334 0.0 0.0 0.0 -0.000458636941704 0.000209600823798 0.000351866177479
273 1 16.875000507 5.000403535 3.319819181 0.0 0.0 0.0 -1.02894159828e-05 -0.000245363870121 -2.14776090769e-05