ITEM: TIMESTEP
0
ITEM: NUMBER OF ATOMS
288
ITEM: BOX BOUNDS xy xz yz xx yy zz
0.0 14.873618743 7.436809228
0.0 12.880930628 8.6e-08
0.0 13.87370028 -1.5e-08
ITEM: ATOMS id type x y z vx vy vz fx fy fz
1 2 2.338671397 1.12e-07 0.380392751 0.0 0.0 0.0 4.98511040945e-05 -3.54987402782e-05 -3.86515105938e-05
2 2 9.775480768 1.12e-07 0.380392751 0.0 0.0 0.0 -3.91549601311e-05 2.99744925212e-05 5.59103791235e-05
3 2 6.057076011 6.440465426 0.380392751 0.0 0.0 0.0 6.67327694183e-05 -2.44095174625e-05 1.91542509852e-05
4 2 13.493885382 6.440465426 0.380392751 0.0 0.0 0.0 1.08573218304e-06 2.21650157655e-05 1.29269685723e-05
5 2 2.33867144 1.04e-07 7.317242891 0.0 0.0 0.0 -0.00230886608472 -0.0016712764687 0.000462392316886
6 2 9.775480812 1.04e-07 7.317242891 0.0 0.0 0.0 -0.000976473605337 0.000296131555991 -0.000149627012036
7 2 6.057076054 6.440465418 7.317242891 0.0 0.0 0.0 0.000184176839274 -0.000124826028719 6.00049090557e-06
8 2 13.493885426 6.440465418 7.317242891 0.0 0.0 0.0 -3.7775926774e-05 6.23370729318e-05 2.00546947508e-05
9 1 2.400632363 4.61e-07 1.351465958 0.0 0.0 0.0 4.32429946359e-05 2.74001972473e-05 0.000135123418036
10 1 9.837441735 4.61e-07 1.351465958 0.0 0.0 0.0 8.87075573661e-05 -2.35046640481e-05 -3.28589179808e-05
11 1 6.119036977 6.440465774 1.351465958 0.0 0.0 0.0 1.68467898313e-05 1.17475083676e-05 3.27970639036e-05
12 1 13.555846349 6.440465774 1.351465958 0.0 0.0 0.0 5.74667604761e-05 -1.26493355886e-05 4.1203926498e-05
13 1 2.400632406 4.53e-07 8.288316098 0.0 0.0 0.0 0.000651487660848 0.000355504617857 -0.000610708304417
14 1 9.837441778 4.53e-07 8.288316098 0.0 0.0 0.0 0.00042287056985 -0.000121550756154 0.000261103655069
15 1 6.11903702 6.440465767 8.288316098 0.0 0.0 0.0 -2.76249499534e-05 4.34607365008e-05 5.09299639599e-05
16 1 13.555846392 6.440465767 8.288316098 0.0 0.0 0.0 7.13064985157e-05 -2.59167398622e-05 3.50637803006e-05
17 1 10.701141082 12.880930558 0.072968506 0.0 0.0 0.0 9.43469289349e-06 1.40195398158e-05 5.49738664827e-05
18 1 18.137950453 12.880930558 0.072968506 0.0 0.0 0.0 0.000115622023585 -8.74531017716e-06 5.78984488141e-05
19 1 6.982736468 6.440465244 0.072968506 0.0 0.0 0.0 4.96388753448e-05 2.85278183119e-05 5.48344515684e-05
20 1 14.419545839 6.440465244 0.072968506 0.0 0.0 0.0 7.30575529723e-05 -2.53161031521e-05 5.63789241564e-05
21 1 10.701141125 12.880930551 7.009818646 0.0 0.0 0.0 0.00213786573507 0.00361868658204 0.000695984491978
22 1 18.137950497 12.880930551 7.009818646 0.0 0.0 0.0 0.000364487784887 -5.15760413099e-05 3.98996530749e-05
23 1 6.982736511 6.440465237 7.009818646 0.0 0.0 0.0 2.27998674347e-05 0.000133433012347 5.67655379401e-05
24 1 14.419545882 6.440465237 7.009818646 0.0 0.0 0.0 9.83237555437e-05 -7.92360116649e-05 5.33893970713e-05
25 2 13.704282012 2.025348059 0.380394512 0.0 0.0 0.0 -0.000145474203112 3.4998690808e-05 -6.51190722123e-07
26 2 6.26747264 2.025348059 0.380394512 0.0 0.0 0.0 0.000162420693134 1.59451913324e-05 3.25242686617e-05
27 2 17.422686626 8.465813373 0.380394512 0.0 0.0 0.0 -2.81769602977e-05 0.000101489905097 1.34035923844e-05
28 2 9.985877254 8.465813373 0.380394512 0.0 0.0 0.0 -1.1507689695e-05 -4.74855534019e-05 1.37396428998e-06
29 2 13.704282055 2.025348052 7.317244652 0.0 0.0 0.0 -0.000479121193208 6.43663174212e-05 2.65682350264e-05
30 2 6.267472684 2.025348052 7.317244652 0.0 0.0 0.0 0.00278800432614 -0.0132323562711 -0.00603226917237
31 2 17.422686669 8.465813365 7.317244652 0.0 0.0 0.0 -8.69386675637e-05 0.000274278203723 -6.42878490664e-07
32 2 9.985877298 8.465813365 7.317244652 0.0 0.0 0.0 -3.9860981759e-05 -0.000248981439026 1.76615128875e-05
33 1 13.673300338 2.079010187 1.351467718 0.0 0.0 0.0 6.56436179141e-05 2.39525432812e-05 4.72924275204e-05
34 1 6.236490966 2.079010187 1.351467718 0.0 0.0 0.0 -0.000140562817253 3.89208687312e-05 -2.13985313933e-05
35 1 17.391704952 8.519475501 1.351467718 0.0 0.0 0.0 -5.83102741075e-06 -1.5527665451e-05 2.26306853438e-05
36 1 9.95489558 8.519475501 1.351467718 0.0 0.0 0.0 -1.49344003817e-05 7.34617925516e-05 4.30672908677e-05
37 1 13.673300381 2.07901018 8.288317858 0.0 0.0 0.0 0.000193691436138 1.23518560034e-05 4.10894546481e-06
38 1 6.236491009 2.07901018 8.288317858 0.0 0.0 0.0 -0.00131200208098 0.000232683187695 0.00214004707517
39 1 17.391704995 8.519475493 8.288317858 0.0 0.0 0.0 1.52947952973e-05 -7.80721278081e-05 4.66011779673e-05
40 1 9.954895623 8.519475493 8.288317858 0.0 0.0 0.0 -5.82000394687e-06 0.000149770403011 1.27284547706e-05
41 1 13.241451457 2.826992613 0.072968839 0.0 0.0 0.0 2.78080894915e-05 5.84922984006e-05 5.38652500339e-05
42 1 5.804642085 2.826992613 0.072968839 0.0 0.0 0.0 -0.000109619135634 6.34237510683e-05 5.87160321437e-05
43 1 16.959856071 9.267457927 0.072968839 0.0 0.0 0.0 -2.41589808942e-05 2.25575345248e-05 5.48327616347e-05
44 1 9.523046699 9.267457927 0.072968839 0.0 0.0 0.0 -2.88186034985e-05 9.8811900366e-05 5.48971576406e-05
45 1 13.2414515 2.826992606 7.009818978 0.0 0.0 0.0 0.000159786840152 5.083053803e-05 5.66355565159e-05
46 1 5.804642128 2.826992606 7.009818978 0.0 0.0 0.0 -0.00305960741707 0.000128357881661 -0.000843347614903
47 1 16.959856114 9.26745792 7.009818978 0.0 0.0 0.0 3.30822373901e-05 -0.000118623929691 5.4797253626e-05
48 1 9.523046743 9.26745792 7.009818978 0.0 0.0 0.0 1.34431865862e-05 0.000240459558463 5.93807819198e-05
49 2 17.422687622 4.415117298 0.380394729 0.0 0.0 0.0 5.82695854401e-06 4.70490095541e-05 -2.19402111628e-05
50 2 9.985878251 4.415117298 0.380394729 0.0 0.0 0.0 -5.91419572919e-05 -9.56427722572e-05 3.24002671757e-05
51 2 21.141092236 10.855582612 0.380394729 0.0 0.0 0.0 -0.000104317834118 -4.79618155318e-05 5.12532368946e-06
52 2 13.704282865 10.855582612 0.380394729 0.0 0.0 0.0 0.000101901065223 -9.1800709954e-07 1.68324153109e-05
53 2 17.422687665 4.415117291 7.317244869 0.0 0.0 0.0 -0.000239439674793 0.000767829245728 0.000140022441489
54 2 9.985878294 4.415117291 7.317244869 0.0 0.0 0.0 -0.00033670355038 -0.000404678297054 -4.75595660633e-05
55 2 21.14109228 10.855582605 7.317244869 0.0 0.0 0.0 -0.000283976712172 -0.00010021976596 1.57322890656e-05
56 2 13.704282908 10.855582605 7.317244869 0.0 0.0 0.0 0.00123825844871 0.000517478072862 0.000108356561531
57 1 2.518088606 4.36145465 1.351467896 0.0 0.0 0.0 -3.00535250517e-05 -7.86038227621e-05 8.22996700465e-05
58 1 9.954897977 4.36145465 1.351467896 0.0 0.0 0.0 1.05695997487e-05 1.71915532129e-05 -2.73532919501e-06
59 1 6.23649322 10.801919964 1.351467896 0.0 0.0 0.0 3.40063314291e-05 -1.36667439772e-05 4.10664348718e-05
60 1 13.673302591 10.801919964 1.351467896 0.0 0.0 0.0 -9.82883513035e-05 -4.75718097137e-05 1.37859106948e-05
61 1 2.518088649 4.361454643 8.288318036 0.0 0.0 0.0 3.04983442762e-05 -0.000312043122692 -0.000115464668539
62 1 9.95489802 4.361454643 8.288318036 0.0 0.0 0.0 0.000102505436984 0.000122044077349 0.000103384472945
63 1 6.236493263 10.801919957 8.288318036 0.0 0.0 0.0 0.000106471642565 8.19235020523e-06 2.07461647743e-05
64 1 13.673302635 10.801919957 8.288318036 0.0 0.0 0.0 -0.000451665991193 -0.000336873964524 0.000141747526226
65 1 16.959856167 3.613473172 0.07296928 0.0 0.0 0.0 -2.54848380672e-05 -9.2457898319e-05 5.6835336375e-05
66 1 9.523046796 3.613473172 0.07296928 0.0 0.0 0.0 -1.31197201633e-05 -3.12488947483e-05 5.29241272229e-05
67 1 20.678260782 10.053938486 0.07296928 0.0 0.0 0.0 3.96742182263e-06 -5.84507160775e-05 5.41018602657e-05
68 1 13.24145141 10.053938486 0.07296928 0.0 0.0 0.0 -7.06945612751e-05 -6.45152770744e-05 5.77903538251e-05
69 1 16.959856211 3.613473164 7.00981942 0.0 0.0 0.0 0.000347277206536 -0.000547410131985 3.87686787368e-05
70 1 9.523046839 3.613473164 7.00981942 0.0 0.0 0.0 0.000277541589763 0.000251277395602 6.77454602435e-05
71 1 20.678260825 10.053938478 7.00981942 0.0 0.0 0.0 6.0292248607e-05 -5.34617859131e-05 5.59899161131e-05
72 1 13.241451453 10.053938478 7.00981942 0.0 0.0 0.0 -0.000260503582426 5.71192953369e-05 3.53061576408e-05
73 2 5.098138192 9.1e-08 3.848820961 0.0 0.0 0.0 0.00124969898284 -0.000240876248885 -0.000874419019147
74 2 12.534947564 9.1e-08 3.848820961 0.0 0.0 0.0 -0.000336126622675 1.14846925543e-05 4.62167543382e-05
75 2 8.816542806 6.440465404 3.848820961 0.0 0.0 0.0 -4.6894634215e-05 -0.000184877869713 5.63775596701e-05
76 2 16.253352178 6.440465404 3.848820961 0.0 0.0 0.0 -6.90869499819e-05 0.000170040145135 -3.20233335286e-05
77 2 5.098138235 8.3e-08 10.785671101 0.0 0.0 0.0 0.000564317712516 -4.52859470942e-05 0.000231419119368
78 2 12.534947607 8.3e-08 10.785671101 0.0 0.0 0.0 -0.00025923074015 7.18147183298e-06 -2.54816112538e-05
79 2 8.816542849 6.440465397 10.785671101 0.0 0.0 0.0 -3.88633293158e-05 -0.000135054296648 -3.32897991003e-05
80 2 16.253352221 6.440465397 10.785671101 0.0 0.0 0.0 -5.56906394679e-05 0.00012694660814 3.96324522292e-05
81 1 12.472986142 12.880930033 4.819894401 0.0 0.0 0.0 -0.00173199308001 0.000651904250402 0.0019369806491
82 1 19.909795513 12.880930033 4.819894401 0.0 0.0 0.0 0.000156117702583 -4.41207274654e-06 1.58718138584e-05
83 1 8.754581528 6.440464719 4.819894401 0.0 0.0 0.0 -2.55912345982e-05 0.000123609248095 7.81908182436e-06
84 1 16.191390899 6.440464719 4.819894401 0.0 0.0 0.0 -1.56183438251e-05 -0.000111501419315 4.70907496399e-05
85 1 12.472986185 12.880930026 11.756744541 0.0 0.0 0.0 -0.000164500361336 3.47019633751e-06 1.32623166163e-05
86 1 19.909795557 12.880930026 11.756744541 0.0 0.0 0.0 3.83690456422e-05 2.00996194022e-07 3.5928432041e-05
87 1 8.754581571 6.440464712 11.756744541 0.0 0.0 0.0 -3.95366788613e-05 4.82862311446e-05 4.03846375282e-05
88 1 16.191390943 6.440464712 11.756744541 0.0 0.0 0.0 -3.5198649259e-05 -4.36939348062e-05 1.79871246645e-05
89 1 4.172478132 1.2e-08 3.541396305 0.0 0.0 0.0 -0.000134310339115 0.000171367469133 0.000491392421191
90 1 11.609287504 1.2e-08 3.541396305 0.0 0.0 0.0 7.30835848601e-05 -2.25129742763e-05 -1.03404841113e-05
91 1 7.890882746 6.440465326 3.541396305 0.0 0.0 0.0 -8.30258682013e-05 7.16087181431e-05 2.75871879824e-05
92 1 15.327692118 6.440465326 3.541396305 0.0 0.0 0.0 -4.37183267954e-05 -5.5198779065e-05 6.50810998005e-05
93 1 4.172478175 5e-09 10.478246445 0.0 0.0 0.0 -0.000281017032592 0.000117299283177 -0.000380757662651
94 1 11.609287547 5e-09 10.478246445 0.0 0.0 0.0 7.07164178664e-05 -1.96280990006e-05 0.000114065780269
95 1 7.890882789 6.440465319 10.478246445 0.0 0.0 0.0 -8.018275066e-05 7.14134981597e-05 7.81923393265e-05
96 1 15.327692161 6.440465319 10.478246445 0.0 0.0 0.0 -4.41982839077e-05 -5.8252072027e-05 4.15577512242e-05
97 2 12.324550744 4.415115375 3.848820709 0.0 0.0 0.0 -0.000176228993034 -5.76935061827e-05 2.93610451568e-05
98 2 4.887741372 4.415115375 3.848820709 0.0 0.0 0.0 0.000477067065301 0.000111937602262 -9.17996028225e-05
99 2 16.042955358 10.855580689 3.848820709 0.0 0.0 0.0 -5.45415060817e-05 0.000314428338412 0.000274103758987
100 2 8.606145986 10.855580689 3.848820709 0.0 0.0 0.0 -0.000137885612345 -0.000250477642838 -0.000144576281876
101 2 12.324550787 4.415115367 10.785670849 0.0 0.0 0.0 -0.000130889347746 -4.78162901264e-05 -5.80294971214e-06
102 2 4.887741415 4.415115367 10.785670849 0.0 0.0 0.0 0.000280661711247 3.53522256901e-05 6.80019001121e-05
103 2 16.042955401 10.855580681 10.785670849 0.0 0.0 0.0 -1.31113969456e-05 0.000170272543821 -0.000181740033016
104 2 8.606146029 10.855580681 10.785670849 0.0 0.0 0.0 -8.90781173833e-05 -0.000178199228335 0.000148110555811
105 1 12.355530592 4.361455296 4.81989398 0.0 0.0 0.0 0.000138882148882 -9.64517607896e-06 2.55234449524e-05
106 1 4.91872122 4.361455296 4.81989398 0.0 0.0 0.0 -0.000336640468418 -0.0001763461484 0.000103526256257
107 1 16.073935206 10.801920609 4.81989398 0.0 0.0 0.0 0.000112479676089 -0.00033306092537 -0.000129770179726
108 1 8.637125834 10.801920609 4.81989398 0.0 0.0 0.0 0.00014372453876 0.000132196918245 0.00011294853504
109 1 12.355530635 4.361455288 11.75674412 0.0 0.0 0.0 7.38838080697e-05 -2.43169635556e-05 3.87888834642e-05
110 1 4.918721263 4.361455288 11.75674412 0.0 0.0 0.0 -4.75750599874e-05 -4.79365401931e-05 1.96725221333e-05
111 1 16.073935249 10.801920602 11.75674412 0.0 0.0 0.0 1.86725625402e-05 -8.35601952485e-05 8.65012098814e-05
112 1 8.637125877 10.801920602 11.75674412 0.0 0.0 0.0 5.12596076589e-05 1.02970321556e-05 -8.83211272145e-06
113 1 12.787381758 3.613470486 3.541396271 0.0 0.0 0.0 0.000138549439189 -5.50065352327e-05 5.5304206125e-05
114 1 5.350572387 3.613470486 3.541396271 0.0 0.0 0.0 -0.000280305297401 -4.71201651264e-05 4.84230207665e-05
115 1 16.505786372 10.0539358 3.541396271 0.0 0.0 0.0 5.0895520758e-05 -0.000143148510479 6.53601616414e-06
116 1 9.068977001 10.0539358 3.541396271 0.0 0.0 0.0 4.95210805856e-05 3.79410596228e-05 0.00010372367951
117 1 12.787381802 3.613470479 10.478246411 0.0 0.0 0.0 0.000136020481126 -5.44320749372e-05 5.41267407383e-05
118 1 5.35057243 3.613470479 10.478246411 0.0 0.0 0.0 -0.000242210527866 -5.28336123401e-05 5.71373218248e-05
119 1 16.505786416 10.053935793 10.478246411 0.0 0.0 0.0 5.85587210423e-05 -0.00015523734415 0.000112674501946
120 1 9.068977044 10.053935793 10.478246411 0.0 0.0 0.0 5.78271549155e-05 4.64379952181e-05 -2.31041240589e-06
121 2 16.042954883 2.025349614 3.848821218 0.0 0.0 0.0 -0.000389668297107 0.000181948294431 -0.000397420790651
122 2 8.606145512 2.025349614 3.848821218 0.0 0.0 0.0 -0.000355062114839 -0.000274924729079 0.000711052449055
123 2 19.761359497 8.465814928 3.848821218 0.0 0.0 0.0 -3.65559568216e-05 5.85282513055e-05 1.70289165863e-05
124 2 12.324550126 8.465814928 3.848821218 0.0 0.0 0.0 0.000110545852947 -3.80879343705e-05 -1.54283632337e-05
125 2 16.042954927 2.025349607 10.785671358 0.0 0.0 0.0 -0.000182135647073 0.000118181898593 0.000291759276846
126 2 8.606145555 2.025349607 10.785671358 0.0 0.0 0.0 -9.05688079862e-05 -0.000110333712959 -0.000390628855567
127 2 19.761359541 8.46581492 10.785671358 0.0 0.0 0.0 -2.92748748858e-05 4.96780675023e-05 4.4388021665e-06
128 2 12.324550169 8.46581492 10.785671358 0.0 0.0 0.0 9.2398971711e-05 -1.35285164955e-05 2.9113064025e-05
129 1 16.07393341 2.079010738 4.819894452 0.0 0.0 0.0 0.000413157557003 -9.64369590829e-05 0.000267793659842
130 1 8.637124038 2.079010738 4.819894452 0.0 0.0 0.0 0.000543664848073 0.000354956702171 -0.000484341786235
131 1 19.792338024 8.519476052 4.819894452 0.0 0.0 0.0 5.53279921031e-05 7.18405467953e-06 3.1629821254e-05
132 1 12.355528653 8.519476052 4.819894452 0.0 0.0 0.0 -3.04803335247e-05 7.82074899777e-05 4.67732127577e-05
133 1 16.073933453 2.079010731 11.756744592 0.0 0.0 0.0 6.99902108146e-05 1.08674682276e-05 -3.74881567503e-05
134 1 8.637124082 2.079010731 11.756744592 0.0 0.0 0.0 2.62800182403e-05 5.44722638013e-05 0.000123819932878
135 1 19.792338067 8.519476045 11.756744592 0.0 0.0 0.0 4.27823184867e-05 2.03852065283e-05 3.51797913942e-05
136 1 12.355528696 8.519476045 11.756744592 0.0 0.0 0.0 4.64386216932e-06 4.31415902585e-05 2.81715308319e-05
137 1 1.632167798 2.826994038 3.541396624 0.0 0.0 0.0 0.000116420270518 -6.55583614215e-05 0.000232991325722
138 1 9.06897717 2.826994038 3.541396624 0.0 0.0 0.0 0.000108633218745 0.000168100561473 -8.43442223494e-05
139 1 5.350572412 9.267459352 3.541396624 0.0 0.0 0.0 7.76913659896e-05 5.72250034199e-05 5.27350861432e-05
140 1 12.787381784 9.267459352 3.541396624 0.0 0.0 0.0 -6.37721599094e-05 6.51407190306e-05 6.60589034813e-05
141 1 1.632167841 2.826994031 10.478246764 0.0 0.0 0.0 0.000117975709689 -5.77649650797e-05 -0.00011972578437
142 1 9.068977213 2.826994031 10.478246764 0.0 0.0 0.0 0.000122190735148 0.000169881452952 0.000215802328171
143 1 5.350572456 9.267459345 10.478246764 0.0 0.0 0.0 7.7662240093e-05 5.68015587832e-05 5.65364699497e-05
144 1 12.787381827 9.267459345 10.478246764 0.0 0.0 0.0 -6.69586694645e-05 6.0027595717e-05 4.77396452925e-05
145 2 12.258736453 12.880930313 6.469757221 0.0 0.0 0.0 0.161649873879 0.16273278448 0.0860393994806
146 2 19.695545825 12.880930313 6.469757221 0.0 0.0 0.0 -0.000502246445234 1.92609456996e-05 -4.16190247113e-05
147 2 8.540331839 6.440464999 6.469757221 0.0 0.0 0.0 -8.08512397313e-05 -0.000284193349742 -4.00254898647e-05
148 2 15.97714121 6.440464999 6.469757221 0.0 0.0 0.0 -0.000110053251521 0.000254760316027 -5.23780702849e-05
149 2 12.258736496 12.880930306 13.40660736 0.0 0.0 0.0 0.000134108910435 -7.39079463671e-06 -4.05526940701e-05
150 2 19.695545868 12.880930306 13.40660736 0.0 0.0 0.0 -0.000175824373403 3.35451199919e-06 -5.10896473274e-05
151 2 8.540331882 6.440464992 13.40660736 0.0 0.0 0.0 -4.49911289171e-05 -7.6227615413e-05 -5.17152282794e-05
152 2 15.977141254 6.440464992 13.40660736 0.0 0.0 0.0 -5.55128370009e-05 7.34226773377e-05 -4.55231103019e-05
153 1 5.341166141 0.766954845 6.788243965 0.0 0.0 0.0 -0.14434425139 -0.137299101006 -0.0730603064016
154 1 12.767975512 0.766954845 6.788243965 0.0 0.0 0.0 0.000179665445273 2.47818560326e-05 -2.27595239864e-05
155 1 9.049570755 7.207420159 6.788243965 0.0 0.0 0.0 -3.95949432846e-05 0.000128273291496 -2.21440765601e-05
156 1 16.486380127 7.207420159 6.788243965 0.0 0.0 0.0 -5.07419866064e-05 -0.000104632986316 -2.68971920966e-05
157 1 5.331166184 0.766954838 13.725094105 0.0 0.0 0.0 -0.000158891838735 1.45228256122e-05 -2.11186128537e-05
158 1 12.767975556 0.766954838 13.725094105 0.0 0.0 0.0 8.38849507027e-06 1.86122332746e-05 -2.51304736988e-05
159 1 9.049570798 7.207420151 13.725094105 0.0 0.0 0.0 -5.67994175215e-05 5.4746011244e-05 -2.53660328521e-05
160 1 16.48638017 7.207420151 13.725094105 0.0 0.0 0.0 -6.08033601342e-05 -2.10673126393e-05 -2.29902574889e-05
161 1 16.486380702 5.673510068 6.788243516 0.0 0.0 0.0 -1.20001099195e-06 -0.000204741669987 -2.19635985121e-05
162 1 9.04957133 5.673510068 6.788243516 0.0 0.0 0.0 -1.61623618413e-06 0.000170745009486 -2.19556327591e-05
163 1 20.204785316 12.113975382 6.788243516 0.0 0.0 0.0 0.000125053939139 -1.75624593226e-05 -2.02045717768e-05
164 1 12.767975944 12.113975382 6.788243516 0.0 0.0 0.0 -0.0184275048507 -0.0164561854392 -0.0101240030336
165 1 16.486380745 5.673510061 13.725093655 0.0 0.0 0.0 -5.6934154989e-05 -5.53906419083e-05 -2.1621193165e-05
166 1 9.049571373 5.673510061 13.725093655 0.0 0.0 0.0 -5.7098101331e-05 2.09896714276e-05 -2.1621392359e-05
167 1 20.204785359 12.113975375 13.725093655 0.0 0.0 0.0 -3.00914401527e-06 -1.72692359688e-05 -2.25634587615e-05
168 1 12.767975987 12.113975375 13.725093655 0.0 0.0 0.0 -0.000140659403723 -1.71151813594e-05 -1.85521270933e-05
169 2 12.462655523 4.175912014 6.46975888 0.0 0.0 0.0 -0.000249870246554 -9.12148928513e-05 -5.07754000664e-05
170 2 5.025846151 4.175912014 6.46975888 0.0 0.0 0.0 0.00109380772843 0.000416472129617 -8.25638074942e-05
171 2 16.181060137 10.616377328 6.46975888 0.0 0.0 0.0 -0.000293732065127 0.000766803806586 3.01713028754e-05
172 2 8.744250765 10.616377328 6.46975888 0.0 0.0 0.0 -0.000283208589165 -0.000463720209871 -0.000105914747154
173 2 12.462655566 4.175912007 13.406609019 0.0 0.0 0.0 -7.13208720847e-05 -5.51097113254e-05 -5.60128035691e-05
174 2 5.025846194 4.175912007 13.406609019 0.0 0.0 0.0 0.000132083306015 -2.23416957429e-05 -5.11590634632e-05
175 2 16.18106018 10.616377321 13.406609019 0.0 0.0 0.0 2.80913494463e-05 3.2421458172e-05 -7.34791533016e-05
176 2 8.744250808 10.616377321 13.406609019 0.0 0.0 0.0 -1.95445806836e-05 -0.000109428471835 -3.80423574098e-05
177 1 4.107023344 4.233448053 6.788243333 0.0 0.0 0.0 -0.000186451950058 -0.000736367387136 -2.16758695309e-05
178 1 11.543832716 4.233448053 6.788243333 0.0 0.0 0.0 0.00016458753334 2.56078017728e-05 -2.09828996349e-05
179 1 7.825427958 10.673913367 6.788243333 0.0 0.0 0.0 0.000160954915803 4.52966297498e-05 -2.01764110644e-05
180 1 15.26223733 10.673913367 6.788243333 0.0 0.0 0.0 -3.88475314286e-05 -0.000665281169941 -4.33807660811e-05
181 1 4.107023387 4.233448046 13.725093473 0.0 0.0 0.0 -2.88148638931e-05 -8.90458329533e-05 -2.02481810551e-05
182 1 11.543832759 4.233448046 13.725093473 0.0 0.0 0.0 5.4019186912e-05 -4.02808111177e-05 -1.97455173619e-05
183 1 7.825428001 10.67391336 13.725093473 0.0 0.0 0.0 4.96639034104e-05 -3.59677010141e-05 -2.01568765424e-05
184 1 15.262237373 10.67391336 13.725093473 0.0 0.0 0.0 -1.9037232504e-05 -9.3384298009e-05 -1.88230379939e-05
185 1 12.872237203 5.00040447 6.78824545 0.0 0.0 0.0 0.000133627975398 -5.74432805546e-05 -2.88522005975e-05
186 1 5.435427832 5.00040447 6.78824545 0.0 0.0 0.0 -0.000179528899735 5.03416302523e-05 -3.63088005169e-05
187 1 16.590641818 11.440869783 6.78824545 0.0 0.0 0.0 0.000457209879885 -0.000440786725254 -3.35362686818e-05
188 1 9.153832446 11.440869783 6.78824545 0.0 0.0 0.0 0.000333087162787 0.000345253346823 8.25291307736e-06
189 1 12.872237247 5.000404462 13.72509559 0.0 0.0 0.0 7.88718818108e-05 -5.21762872539e-05 -2.92098625792e-05
190 1 5.435427875 5.000404462 13.72509559 0.0 0.0 0.0 6.11073944362e-06 -4.78584734223e-05 -2.77922120836e-05
191 1 16.590641861 11.440869776 13.72509559 0.0 0.0 0.0 5.93445107746e-05 -8.04509883976e-05 -2.78782981527e-05
192 1 9.153832489 11.440869776 13.72509559 0.0 0.0 0.0 5.49795446117e-05 -1.96565087296e-05 -3.11450910469e-05
193 2 1.307441393 2.264553585 6.469759523 0.0 0.0 0.0 -0.00114232060471 0.000462010016297 -0.000169085170325
194 2 8.744250764 2.264553585 6.469759523 0.0 0.0 0.0 -0.001903742445 -0.00109501004287 0.000183175205363
195 2 5.025846007 8.705018899 6.469759523 0.0 0.0 0.0 -5.35481337036e-05 9.06269167812e-05 -5.2500527114e-05
196 2 12.462655379 8.705018899 6.469759523 0.0 0.0 0.0 0.000169146626926 -7.48320802598e-05 -5.78398900954e-05
197 2 1.307441436 2.264553578 13.406609663 0.0 0.0 0.0 -3.92892261211e-05 7.38894484708e-05 -3.00847591444e-05
198 2 8.744250808 2.264553578 13.406609663 0.0 0.0 0.0 2.32400605259e-05 7.09131032929e-06 -8.34365442583e-05
199 2 5.02584605 8.705018892 13.406609663 0.0 0.0 0.0 -1.34191728321e-05 5.82518009898e-05 -5.51846289312e-05
200 2 12.462655422 8.705018892 13.406609663 0.0 0.0 0.0 5.496123673e-05 2.43855136516e-05 -5.32282002316e-05
201 1 1.717022388 1.440060952 6.788246651 0.0 0.0 0.0 0.00117851673045 -4.47212606768e-05 -7.17859218836e-06
202 1 9.15383176 1.440060952 6.788246651 0.0 0.0 0.0 0.000968689012638 9.61671454312e-05 -7.5054314637e-06
203 1 5.435427002 7.880526266 6.788246651 0.0 0.0 0.0 3.5490650462e-05 5.92478966662e-05 -3.24891559373e-05
204 1 12.872236374 7.880526266 6.788246651 0.0 0.0 0.0 2.29734950274e-05 4.47017275789e-05 -3.48672894586e-05
205 1 1.717022431 1.440060945 13.725096791 0.0 0.0 0.0 5.69000725361e-05 4.98591458786e-05 -3.29231841252e-05
206 1 9.153831803 1.440060945 13.725096791 0.0 0.0 0.0 6.60596201562e-05 5.46254695721e-05 -3.30931537762e-05
207 1 5.435427045 7.880526258 13.725096791 0.0 0.0 0.0 4.71659432097e-05 5.45903720844e-05 -3.23687056139e-05
208 1 12.872236417 7.880526258 13.725096791 0.0 0.0 0.0 4.31643653969e-05 5.00634832089e-05 -3.1505630361e-05
209 1 15.262237079 2.207018097 6.788243067 0.0 0.0 0.0 0.000311547635528 -4.2084222277e-06 -2.8581061167e-05
210 1 7.825427708 2.207018097 6.788243067 0.0 0.0 0.0 0.00181077699796 0.00190302172678 -1.03065582305e-05
211 1 18.980641693 8.647483411 6.788243067 0.0 0.0 0.0 5.47740330763e-05 -1.73285838576e-05 -1.75981437649e-05
212 1 11.543832322 8.647483411 6.788243067 0.0 0.0 0.0 -2.64403151477e-05 0.000191582646969 -1.32175847707e-05
213 1 15.262237122 2.207018089 13.725093207 0.0 0.0 0.0 6.45959692869e-05 4.80462821719e-05 -1.49085758144e-05
214 1 7.825427751 2.207018089 13.725093207 0.0 0.0 0.0 -3.4464182806e-05 7.59151597782e-05 -1.7012551396e-05
215 1 18.980641736 8.647483403 13.725093207 0.0 0.0 0.0 2.58879793034e-05 3.50237904433e-05 -1.58672998443e-05
216 1 11.543832365 8.647483403 13.725093207 0.0 0.0 0.0 -2.19416395482e-06 8.66363438047e-05 -1.6926524864e-05
217 2 10.05169036 12.880930562 3.001331049 0.0 0.0 0.0 -6.79169048388e-05 -0.000178075557441 -0.000534776529206
218 2 17.488499731 12.880930562 3.001331049 0.0 0.0 0.0 -0.000191887487377 9.07884190439e-05 0.000239454599097
219 2 6.333285745 6.440465248 3.001331049 0.0 0.0 0.0 0.000126752069031 -5.18810367485e-05 -1.95704976884e-05
220 2 13.770095117 6.440465248 3.001331049 0.0 0.0 0.0 5.81273749686e-06 3.67618326822e-05 -5.09096252171e-05
221 2 10.051690403 12.880930555 9.938181189 0.0 0.0 0.0 -0.00022678004082 -0.000260514846872 0.000699857446035
222 2 17.488499774 12.880930555 9.938181189 0.0 0.0 0.0 -0.000297980915086 0.000114710065306 -0.000381749329085
223 2 6.333285789 6.440465241 9.938181189 0.0 0.0 0.0 0.00013954406164 -6.54781850848e-05 -6.87307259642e-05
224 2 13.77009516 6.440465241 9.938181189 0.0 0.0 0.0 2.20970375432e-06 4.45472050081e-05 -3.4547739046e-05
225 1 13.26085702 5.67351034 3.319819519 0.0 0.0 0.0 0.000114003186361 -2.29431054617e-05 -2.48265010144e-05
226 1 5.824047648 5.67351034 3.319819519 0.0 0.0 0.0 -3.42841969757e-05 -1.04096737435e-07 -4.23877157599e-05
227 1 16.979261634 12.113975653 3.319819519 0.0 0.0 0.0 0.000161753512384 -0.000124884648648 -0.000186444624201
228 1 9.542452262 12.113975653 3.319819519 0.0 0.0 0.0 0.00014068333104 0.000115769142675 0.000128042391701
229 1 13.260857063 5.673510332 10.256669659 0.0 0.0 0.0 0.000114040067347 -2.29678552129e-05 -3.2968661069e-05
230 1 5.824047691 5.673510332 10.256669659 0.0 0.0 0.0 -3.42269949671e-05 -9.61712136732e-08 -1.54134808803e-05
231 1 16.979261677 12.113975646 10.256669659 0.0 0.0 0.0 0.000161737567058 -0.000124912568906 0.000128595126218
232 1 9.542452305 12.113975646 10.256669659 0.0 0.0 0.0 0.000140685355338 0.000115766474473 -0.000186016514202
233 1 2.105642892 0.766955018 3.319818703 0.0 0.0 0.0 0.000212129945941 3.32685463982e-05 0.000268853401168
234 1 9.542452263 0.766955018 3.319818703 0.0 0.0 0.0 0.000220294747922 1.28311631633e-05 -0.000251068396743
235 1 5.824047506 7.207420332 3.319818703 0.0 0.0 0.0 5.06444079901e-05 2.33255886228e-05 -2.55592949632e-05
236 1 13.260856878 7.207420332 3.319818703 0.0 0.0 0.0 5.37733480656e-05 1.25672587236e-05 -2.49800086782e-05
237 1 2.105642935 0.766955011 10.256668843 0.0 0.0 0.0 0.000212131389342 1.65173789825e-06 -0.000318867900009
238 1 9.542452307 0.766955011 10.256668843 0.0 0.0 0.0 0.000220265590961 2.20602829614e-05 0.000201172037958
239 1 5.824047549 7.207420325 10.256668843 0.0 0.0 0.0 5.38313681201e-05 2.22656271768e-05 -2.48428824832e-05
240 1 13.260856921 7.207420325 10.256668843 0.0 0.0 0.0 5.06440874967e-05 1.1499963758e-05 -2.43143735067e-05
241 2 13.566178647 2.264553318 3.001331607 0.0 0.0 0.0 -0.00026648724422 5.55886322288e-05 -9.61231713636e-05
242 2 6.129369276 2.264553318 3.001331607 0.0 0.0 0.0 0.000598236988775 -7.24408350632e-05 0.00035406503364
243 2 17.284583261 8.705018632 3.001331607 0.0 0.0 0.0 -5.35838444227e-05 0.000173078354639 -1.25972867694e-05
244 2 9.84777389 8.705018632 3.001331607 0.0 0.0 0.0 -2.77244245685e-05 -9.92192990701e-05 -8.71644870752e-05
245 2 13.56617869 2.26455331 9.938181747 0.0 0.0 0.0 -0.000312916943227 6.19816168504e-05 9.24046751783e-06
246 2 6.129369319 2.26455331 9.938181747 0.0 0.0 0.0 0.000871309974098 -0.000226729992762 -0.000741924773924
247 2 17.284583305 8.705018624 9.938181747 0.0 0.0 0.0 -6.49197380519e-05 0.00019825240501 -8.42908385418e-05
248 2 9.847773933 8.705018624 9.938181747 0.0 0.0 0.0 -3.04438423085e-05 -0.000135637739847 2.91607660731e-06
249 1 14.485000752 2.20701716 3.319818255 0.0 0.0 0.0 0.000122399872131 3.34173229547e-05 4.89488105706e-05
250 1 7.048191381 2.20701716 3.319818255 0.0 0.0 0.0 -0.000116626048522 0.000216747965459 -0.000453412016897
251 1 18.203405367 8.647482473 3.319818255 0.0 0.0 0.0 9.69190406896e-06 9.33302347921e-06 -3.76333095821e-05
252 1 10.766595995 8.647482473 3.319818255 0.0 0.0 0.0 -3.48709287509e-05 0.000128312827793 -1.15623718188e-06
253 1 14.485000796 2.207017152 10.256668395 0.0 0.0 0.0 0.000123627807992 2.97090988291e-05 -0.000102466771661
254 1 7.048191424 2.207017152 10.256668395 0.0 0.0 0.0 -6.22656494274e-05 0.000218049363315 0.000377709590009
255 1 18.20340541 8.647482466 10.256668395 0.0 0.0 0.0 1.11056358118e-05 1.11160976208e-05 -1.38681545927e-05
256 1 10.766596038 8.647482466 10.256668395 0.0 0.0 0.0 -3.98991584349e-05 0.000131747849818 -5.2943110223e-05
257 1 5.719786092 1.440061854 3.319818129 0.0 0.0 0.0 -0.000622451055036 1.88931271923e-05 -0.000113090788672
258 1 13.156595464 1.440061854 3.319818129 0.0 0.0 0.0 9.60537805273e-05 4.83306644589e-05 -2.03836697356e-05
259 1 9.438190706 7.880527168 3.319818129 0.0 0.0 0.0 -3.22169349722e-05 0.000114758862799 -2.24727183362e-05
260 1 16.875000078 7.880527168 3.319818129 0.0 0.0 0.0 -4.00700945805e-05 -3.00059296635e-05 -2.5776696146e-05
261 1 5.719786135 1.440061847 10.256668269 0.0 0.0 0.0 -0.000626794741719 1.63348564099e-05 5.94166500845e-05
262 1 13.156595507 1.440061847 10.256668269 0.0 0.0 0.0 9.56940698929e-05 4.84291366876e-05 -2.59370360007e-05
263 1 9.438190749 7.880527161 10.256668269 0.0 0.0 0.0 -3.20302502054e-05 0.000114872007629 -2.41158379573e-05
264 1 16.875000121 7.880527161 10.256668269 0.0 0.0 0.0 -4.00271962622e-05 -3.02845015554e-05 -2.06243039516e-05
265 2 2.410964342 4.175911908 3.001332195 0.0 0.0 0.0 -2.83824596774e-05 0.000179914661881 -0.00025411270408
266 2 9.847773713 4.175911908 3.001332195 0.0 0.0 0.0 -0.000139729243093 -0.000197188940537 8.431083001e-05
267 2 6.129368956 10.616377222 3.001332195 0.0 0.0 0.0 -0.000173449778404 -7.8834944844e-05 -7.1324810121e-05
268 2 13.566178327 10.616377222 3.001332195 0.0 0.0 0.0 0.000281263172324 5.48963550777e-05 2.66703236411e-05
269 2 2.410964385 4.175911901 9.938182334 0.0 0.0 0.0 -4.59790220373e-05 0.000257771754903 0.000199240190121
270 2 9.847773757 4.175911901 9.938182334 0.0 0.0 0.0 -0.0001722879558 -0.000235010750944 -0.000193772618727
271 2 6.129368999 10.616377215 9.938182334 0.0 0.0 0.0 -0.00020397322044 -8.77379472216e-05 -1.98970458321e-05
272 2 13.566178371 10.616377215 9.938182334 0.0 0.0 0.0 0.000396695452725 0.00014299385594 -0.000191080668234
273 1 16.875000507 5.000403535 3.319819181 0.0 0.0 0.0 -1.99086189802e-05 -0.000144765822577 2.64766464496e-05