ITEM: TIMESTEP
0
ITEM: NUMBER OF ATOMS
288
ITEM: BOX BOUNDS xy xz yz xx yy zz
0.0 14.873618743 7.436809228
0.0 12.880930628 8.6e-08
0.0 13.87370028 -1.5e-08
ITEM: ATOMS id type x y z vx vy vz fx fy fz
1 2 2.338671397 1.12e-07 0.380392751 0.0 0.0 0.0 0.193530657678 0.0203608026525 -0.0533972641836
2 2 9.775480768 1.12e-07 0.380392751 0.0 0.0 0.0 -0.000225853726429 0.000109136484041 4.16455835067e-06
3 2 6.057076011 6.440465426 0.380392751 0.0 0.0 0.0 -0.000184742188968 -0.000407264945272 4.84750265527e-06
4 2 13.493885382 6.440465426 0.380392751 0.0 0.0 0.0 0.00021357701138 -0.000176703617959 2.2913968469e-05
5 2 2.33867144 1.04e-07 7.317242891 0.0 0.0 0.0 0.000115072114123 0.000163308916736 1.83905276702e-06
6 2 9.775480812 1.04e-07 7.317242891 0.0 0.0 0.0 -3.75558464429e-05 3.81358057993e-05 2.18256530425e-05
7 2 6.057076054 6.440465418 7.317242891 0.0 0.0 0.0 -3.46920075329e-05 -0.000117181902454 2.17204799524e-05
8 2 13.493885426 6.440465418 7.317242891 0.0 0.0 0.0 8.81940214517e-05 -4.61634748527e-05 1.23179984703e-05
9 1 2.400632363 4.61e-07 1.351465958 0.0 0.0 0.0 -0.00637282043906 -0.00119432658421 0.000576021977788
10 1 9.837441735 4.61e-07 1.351465958 0.0 0.0 0.0 0.000154795223087 -5.32914943628e-05 6.00825148229e-05
11 1 6.119036977 6.440465774 1.351465958 0.0 0.0 0.0 0.000132987245944 0.000178193465093 5.84417460041e-05
12 1 13.555846349 6.440465774 1.351465958 0.0 0.0 0.0 -3.98293637752e-05 7.81407318338e-05 2.31423452251e-05
13 1 2.400632406 4.53e-07 8.288316098 0.0 0.0 0.0 -1.85805176863e-05 -0.000119516150019 7.62476885412e-05
14 1 9.837441778 4.53e-07 8.288316098 0.0 0.0 0.0 8.16284631892e-05 -2.45004732086e-05 2.71455871182e-05
15 1 6.11903702 6.440465767 8.288316098 0.0 0.0 0.0 7.88296819764e-05 6.91766724536e-05 2.75175798184e-05
16 1 13.555846392 6.440465767 8.288316098 0.0 0.0 0.0 6.49649755357e-06 2.73771624217e-05 4.79866688752e-05
17 1 10.706141082 12.889590812 0.072968506 0.0 0.0 0.0 -0.18152825629 -0.02675442031 0.0487203488978
18 1 18.137950453 12.880930558 0.072968506 0.0 0.0 0.0 0.000172062691895 -3.70369277305e-05 5.15387562271e-05
19 1 6.982736468 6.440465244 0.072968506 0.0 0.0 0.0 0.000187842526062 0.000204682860889 5.18306302047e-05
20 1 14.419545839 6.440465244 0.072968506 0.0 0.0 0.0 -4.0066714429e-05 7.31982048964e-05 5.87319983161e-05
21 1 10.701141125 12.880930551 7.009818646 0.0 0.0 0.0 1.14729394755e-05 -8.10164475979e-05 4.89620749619e-05
22 1 18.137950497 12.880930551 7.009818646 0.0 0.0 0.0 9.5982145994e-05 -1.44355227964e-05 5.65896218778e-05
23 1 6.982736511 6.440465237 7.009818646 0.0 0.0 0.0 9.70825897012e-05 5.92279320685e-05 5.6535877356e-05
24 1 14.419545882 6.440465237 7.009818646 0.0 0.0 0.0 2.8921321609e-05 1.98595722116e-05 5.29260122546e-05
25 2 13.704282012 2.025348059 0.380394512 0.0 0.0 0.0 -3.91249316178e-05 0.000247617930633 1.67777571921e-05
26 2 6.26747264 2.025348059 0.380394512 0.0 0.0 0.0 -0.0018982514951 -0.000917678294991 -0.000381108610986
27 2 17.422686626 8.465813373 0.380394512 0.0 0.0 0.0 -1.04786005568e-05 -6.61706792913e-05 6.11429107511e-06
28 2 9.985877254 8.465813373 0.380394512 0.0 0.0 0.0 -0.00018435384517 -0.00110437122783 0.000195608226577
29 2 13.704282055 2.025348052 7.317244652 0.0 0.0 0.0 -8.74294352937e-06 7.67792393116e-05 6.66086645373e-06
30 2 6.267472684 2.025348052 7.317244652 0.0 0.0 0.0 -4.43949669498e-05 5.61210112267e-05 5.88394989583e-05
31 2 17.422686669 8.465813365 7.317244652 0.0 0.0 0.0 -1.62755786248e-05 -8.42319363514e-06 1.04812684552e-05
32 2 9.985877298 8.465813365 7.317244652 0.0 0.0 0.0 -1.22259039075e-05 -3.84454873218e-05 -3.24570377212e-05
33 1 13.673300338 2.079010187 1.351467718 0.0 0.0 0.0 1.44923154317e-07 -6.86910909952e-05 1.44382908234e-05
34 1 6.236490966 2.079010187 1.351467718 0.0 0.0 0.0 0.000574510943776 0.000255612058457 0.000544007596365
35 1 17.391704952 8.519475501 1.351467718 0.0 0.0 0.0 -1.63001092626e-05 7.50732589866e-05 3.53988083768e-05
36 1 9.95489558 8.519475501 1.351467718 0.0 0.0 0.0 3.5106384637e-05 0.000410442810726 -0.000190100489712
37 1 13.673300381 2.07901018 8.288317858 0.0 0.0 0.0 -1.80123934977e-05 -5.01625693519e-06 3.8163578542e-05
38 1 6.236491009 2.07901018 8.288317858 0.0 0.0 0.0 1.48673489271e-05 1.32314984394e-05 -5.77526761178e-05
39 1 17.391704995 8.519475493 8.288317858 0.0 0.0 0.0 -1.30988502223e-05 5.13320590796e-05 2.92743080883e-05
40 1 9.954895623 8.519475493 8.288317858 0.0 0.0 0.0 -1.56625255329e-05 7.94704052439e-05 0.000101412188321
41 1 13.241451457 2.826992613 0.072968839 0.0 0.0 0.0 -4.78961585176e-05 2.98288643715e-05 5.85819394514e-05
42 1 5.804642085 2.826992613 0.072968839 0.0 0.0 0.0 0.000591565250093 0.000868512553057 1.67686193331e-05
43 1 16.959856071 9.267457927 0.072968839 0.0 0.0 0.0 -3.3309578726e-05 5.66221570113e-05 5.45195453111e-05
44 1 9.523046699 9.267457927 0.072968839 0.0 0.0 0.0 0.00035590790332 0.00099397865289 1.69980242794e-05
45 1 13.2414515 2.826992606 7.009818978 0.0 0.0 0.0 -3.39637914149e-05 5.44045599901e-05 5.30184295377e-05
46 1 5.804642128 2.826992606 7.009818978 0.0 0.0 0.0 -2.05211544156e-05 6.92538467825e-05 5.55093164925e-05
47 1 16.959856114 9.26745792 7.009818978 0.0 0.0 0.0 -2.99552196975e-05 6.17199411038e-05 5.44876905169e-05
48 1 9.523046743 9.26745792 7.009818978 0.0 0.0 0.0 -2.77571814769e-05 7.39110977378e-05 5.55191705868e-05
49 2 17.422687622 4.415117298 0.380394729 0.0 0.0 0.0 0.000536073953321 -0.00075234591642 -0.000144481001757
50 2 9.985878251 4.415117298 0.380394729 0.0 0.0 0.0 -0.000186924395285 -0.000223130044518 4.49293167591e-06
51 2 21.141092236 10.855582612 0.380394729 0.0 0.0 0.0 -0.000539953194421 -0.000100899111677 0.000102931599948
52 2 13.704282865 10.855582612 0.380394729 0.0 0.0 0.0 0.000838070900266 0.000596301878505 5.46530073557e-05
53 2 17.422687665 4.415117291 7.317244869 0.0 0.0 0.0 5.52139398474e-05 -5.57078461134e-05 4.43187805284e-05
54 2 9.985878294 4.415117291 7.317244869 0.0 0.0 0.0 -7.06580752344e-05 -9.59853420893e-05 1.28650350814e-05
55 2 21.14109228 10.855582605 7.317244869 0.0 0.0 0.0 -9.35589844724e-05 -2.91286688079e-05 -1.90894786516e-05
56 2 13.704282908 10.855582605 7.317244869 0.0 0.0 0.0 5.90331882398e-05 5.87537693695e-05 4.44837223347e-06
57 1 2.518088606 4.36145465 1.351467896 0.0 0.0 0.0 -0.000218824647599 0.000214765624227 0.000204284165936
58 1 9.954897977 4.36145465 1.351467896 0.0 0.0 0.0 5.37730009988e-05 6.38184077065e-05 3.94665277492e-05
59 1 6.23649322 10.801919964 1.351467896 0.0 0.0 0.0 0.000187419481764 -1.04206205107e-05 -5.91948447173e-05
60 1 13.673302591 10.801919964 1.351467896 0.0 0.0 0.0 -0.000308102974929 -0.000301543967858 -2.33324685222e-05
61 1 2.518088649 4.361454643 8.288318036 0.0 0.0 0.0 -6.34115947914e-05 6.03324781509e-07 -2.12239982886e-05
62 1 9.95489802 4.361454643 8.288318036 0.0 0.0 0.0 1.17496333346e-05 1.43107586069e-05 2.89584570134e-05
63 1 6.236493263 10.801919957 8.288318036 0.0 0.0 0.0 3.3125017535e-05 -2.63640912656e-05 7.8283933592e-05
64 1 13.673302635 10.801919957 8.288318036 0.0 0.0 0.0 -6.69722752592e-05 -8.4787667515e-05 4.36173857346e-05
65 1 16.959856167 3.613473172 0.07296928 0.0 0.0 0.0 -0.00062366746181 0.000311147473907 9.14078248314e-05
66 1 9.523046796 3.613473172 0.07296928 0.0 0.0 0.0 0.000112577376056 1.71649311858e-05 5.55343725748e-05
67 1 20.678260782 10.053938486 0.07296928 0.0 0.0 0.0 0.000154739912784 2.46359007163e-05 5.34731316189e-05
68 1 13.24145141 10.053938486 0.07296928 0.0 0.0 0.0 -0.000620421708534 4.61731782337e-05 5.71476899143e-05
69 1 16.959856211 3.613473164 7.00981942 0.0 0.0 0.0 -7.21943791469e-05 -7.47959141623e-05 5.21994252105e-05
70 1 9.523046839 3.613473164 7.00981942 0.0 0.0 0.0 8.24568652731e-06 -3.92031202435e-05 5.38459991149e-05
71 1 20.678260825 10.053938478 7.00981942 0.0 0.0 0.0 1.08150479858e-05 -4.23249581951e-05 5.4572232056e-05
72 1 13.241451453 10.053938478 7.00981942 0.0 0.0 0.0 -7.2154897233e-05 -8.30579562004e-05 5.44452562375e-05
73 2 5.098138192 9.1e-08 3.848820961 0.0 0.0 0.0 0.000169175326549 0.000501622320553 -0.000288842213365
74 2 12.534947564 9.1e-08 3.848820961 0.0 0.0 0.0 -0.000146662995214 6.08061174496e-05 5.03365010873e-05
75 2 8.816542806 6.440465404 3.848820961 0.0 0.0 0.0 -0.000130850747868 -0.000201483551667 5.07717395252e-05
76 2 16.253352178 6.440465404 3.848820961 0.0 0.0 0.0 6.30481681643e-05 -8.9874334029e-05 -2.98527023536e-05
77 2 5.098138235 8.3e-08 10.785671101 0.0 0.0 0.0 0.000166878807416 0.00104482909774 0.000782299289248
78 2 12.534947607 8.3e-08 10.785671101 0.0 0.0 0.0 -0.000206467413075 8.88339949745e-05 -5.28683619987e-05
79 2 8.816542849 6.440465397 10.785671101 0.0 0.0 0.0 -0.000160407230575 -0.000275355573153 -4.6761301453e-05
80 2 16.253352221 6.440465397 10.785671101 0.0 0.0 0.0 9.13758864729e-05 -0.000130520086995 5.12902788858e-05
81 1 12.472986142 12.880930033 4.819894401 0.0 0.0 0.0 -8.93736659633e-05 -9.71280457364e-05 6.62802339488e-05
82 1 19.909795513 12.880930033 4.819894401 0.0 0.0 0.0 -3.27541641426e-06 -2.19428705376e-05 1.52055023007e-05
83 1 8.754581528 6.440464719 4.819894401 0.0 0.0 0.0 -7.94358332369e-06 7.08953751284e-05 1.52322467061e-05
84 1 16.191390899 6.440464719 4.819894401 0.0 0.0 0.0 -7.43965200959e-05 3.26040781655e-05 4.17374448919e-05
85 1 12.472986185 12.880930026 11.756744541 0.0 0.0 0.0 0.000137685369178 -0.00126845469162 -0.00108637759986
86 1 19.909795557 12.880930026 11.756744541 0.0 0.0 0.0 8.1496045955e-05 -5.74320561151e-05 5.65052954417e-05
87 1 8.754581571 6.440464712 11.756744541 0.0 0.0 0.0 4.02065397343e-05 0.000182902285597 5.4118033649e-05
88 1 16.191390943 6.440464712 11.756744541 0.0 0.0 0.0 -0.000119249855294 9.13112978355e-05 7.750926768e-06
89 1 4.172478132 1.2e-08 3.541396305 0.0 0.0 0.0 -0.000359819946036 -0.000463835116423 0.000163549334904
90 1 11.609287504 1.2e-08 3.541396305 0.0 0.0 0.0 6.51331103885e-07 -2.56353518112e-05 4.86281770177e-05
91 1 7.890882746 6.440465326 3.541396305 0.0 0.0 0.0 5.80943034184e-06 0.000118761364546 4.6574061967e-05
92 1 15.327692118 6.440465326 3.541396305 0.0 0.0 0.0 -0.000128046529739 4.15719118723e-05 5.84516018013e-05
93 1 4.172478175 5e-09 10.478246445 0.0 0.0 0.0 -0.000359452823958 -0.000463572256572 -5.71540831991e-05
94 1 11.609287547 5e-09 10.478246445 0.0 0.0 0.0 6.60336012814e-07 -2.56528818885e-05 5.80618587642e-05
95 1 7.890882789 6.440465319 10.478246445 0.0 0.0 0.0 5.8163247375e-06 0.000118780226992 6.01270335583e-05
96 1 15.327692161 6.440465319 10.478246445 0.0 0.0 0.0 -0.000128023460042 4.15664616787e-05 4.82389042853e-05
97 2 12.324550744 4.415115375 3.848820709 0.0 0.0 0.0 2.26357665261e-05 -7.11307271419e-05 1.73952070048e-05
98 2 4.887741372 4.415115375 3.848820709 0.0 0.0 0.0 -2.82650571856e-05 -0.000243518865308 -0.000255807430174
99 2 16.042955358 10.855580689 3.848820709 0.0 0.0 0.0 6.61625341085e-06 5.6649022684e-05 -8.7881652486e-06
100 2 8.606145986 10.855580689 3.848820709 0.0 0.0 0.0 -0.000151700512235 -2.76960859869e-05 0.000429258741122
101 2 12.324550787 4.415115367 10.785670849 0.0 0.0 0.0 3.19441778528e-05 -8.20064018218e-05 3.59412760094e-06
102 2 4.887741415 4.415115367 10.785670849 0.0 0.0 0.0 -8.93909113074e-05 -0.000425112765675 0.000376896364954
103 2 16.042955401 10.855580681 10.785670849 0.0 0.0 0.0 -2.31796896544e-06 8.54013719274e-05 3.39880333749e-05
104 2 8.606146029 10.855580681 10.785670849 0.0 0.0 0.0 -0.000409526011785 -0.000212731426834 -0.000848926637001
105 1 12.355530592 4.361455296 4.81989398 0.0 0.0 0.0 1.97747481383e-05 -1.36414075517e-05 3.11652541429e-05
106 1 4.91872122 4.361455296 4.81989398 0.0 0.0 0.0 2.87339892589e-05 1.62477303421e-05 0.000100157314971
107 1 16.073935206 10.801920609 4.81989398 0.0 0.0 0.0 2.50218310082e-05 -6.21002383741e-05 4.08074761212e-05
108 1 8.637125834 10.801920609 4.81989398 0.0 0.0 0.0 4.09038128766e-05 -5.46763734405e-05 -5.39455515862e-05
109 1 12.355530635 4.361455288 11.75674412 0.0 0.0 0.0 1.10672078507e-05 6.06010364872e-06 3.69942034181e-05
110 1 4.918721263 4.361455288 11.75674412 0.0 0.0 0.0 0.000111572011713 0.000320126705641 -0.000164741305191
111 1 16.073935249 10.801920602 11.75674412 0.0 0.0 0.0 3.6917951595e-05 -0.000115128456134 1.94942100103e-05
112 1 8.637125877 10.801920602 11.75674412 0.0 0.0 0.0 0.000641786641698 0.000299455564074 0.000706723224202
113 1 12.787381758 3.613470486 3.541396271 0.0 0.0 0.0 2.37238650845e-05 -5.80857423801e-05 5.41906021687e-05
114 1 5.350572387 3.613470486 3.541396271 0.0 0.0 0.0 0.000100579593002 8.37886194533e-05 0.000286038712705
115 1 16.505786372 10.0539358 3.541396271 0.0 0.0 0.0 2.77036126572e-05 -6.59389551812e-05 5.50215477227e-05
116 1 9.068977001 10.0539358 3.541396271 0.0 0.0 0.0 0.00012310434487 5.80256264291e-05 -0.000220673401123
117 1 12.787381802 3.613470479 10.478246411 0.0 0.0 0.0 1.98586878819e-05 -6.14297277785e-05 5.42573104349e-05
118 1 5.35057243 3.613470479 10.478246411 0.0 0.0 0.0 0.000113118895659 7.64627990794e-05 -0.000176696353689
119 1 16.505786416 10.053935793 10.478246411 0.0 0.0 0.0 2.86969576832e-05 -6.09322422339e-05 5.50408890905e-05
120 1 9.068977044 10.053935793 10.478246411 0.0 0.0 0.0 7.96060204482e-05 8.30990916865e-05 0.000330210636363
121 2 16.042954883 2.025349614 3.848821218 0.0 0.0 0.0 0.000218500674807 0.00023560686786 -4.69433209782e-05
122 2 8.606145512 2.025349614 3.848821218 0.0 0.0 0.0 -0.000160807738312 8.09246996184e-06 -0.000109881892564
123 2 19.761359497 8.465814928 3.848821218 0.0 0.0 0.0 -8.66938699264e-05 -8.75924172845e-05 3.27211091551e-05
124 2 12.324550126 8.465814928 3.848821218 0.0 0.0 0.0 0.000179239279377 -7.65798388705e-05 0.000190171616874
125 2 16.042954927 2.025349607 10.785671358 0.0 0.0 0.0 0.000464393966731 0.000343036558192 0.000197135189806
126 2 8.606145555 2.025349607 10.785671358 0.0 0.0 0.0 -0.000244045052911 -5.79488808244e-06 0.000154985221852
127 2 19.761359541 8.46581492 10.785671358 0.0 0.0 0.0 -0.000126733836064 -0.000127082343399 -1.78423890596e-05
128 2 12.324550169 8.46581492 10.785671358 0.0 0.0 0.0 0.000276514328111 -0.000166286405868 -0.000232061498317
129 1 16.07393341 2.079010738 4.819894452 0.0 0.0 0.0 -2.21494509909e-05 -2.9799303911e-05 4.45422781672e-05
130 1 8.637124038 2.079010738 4.819894452 0.0 0.0 0.0 7.92892620475e-05 3.07096903041e-05 7.20587236237e-05
131 1 19.792338024 8.519476052 4.819894452 0.0 0.0 0.0 6.25478449542e-05 7.30209504902e-05 2.90366966775e-05
132 1 12.355528653 8.519476052 4.819894452 0.0 0.0 0.0 -1.72089965314e-05 5.16402919321e-05 -1.25245757756e-05
133 1 16.073933453 2.079010731 11.756744592 0.0 0.0 0.0 -0.00040781707057 -0.00024907611452 -7.46007785178e-05
134 1 8.637124082 2.079010731 11.756744592 0.0 0.0 0.0 0.000223679208419 5.35849660321e-05 -4.20525376005e-05
135 1 19.792338067 8.519476045 11.756744592 0.0 0.0 0.0 0.000114143220045 0.000127721675192 4.22546570013e-05
136 1 12.355528696 8.519476045 11.756744592 0.0 0.0 0.0 -0.00016906260467 0.000218882044251 0.000167623418298
137 1 1.632167798 2.826994038 3.541396624 0.0 0.0 0.0 -0.000143931799121 1.44310736547e-05 0.000175222542829
138 1 9.06897717 2.826994038 3.541396624 0.0 0.0 0.0 0.000117191609712 9.67516246188e-05 9.5124168596e-05
139 1 5.350572412 9.267459352 3.541396624 0.0 0.0 0.0 0.000108623064528 0.000102842401396 1.85259835258e-05
140 1 12.787381784 9.267459352 3.541396624 0.0 0.0 0.0 -0.000118800729314 6.90806142926e-05 -6.32016680667e-05
141 1 1.632167841 2.826994031 10.478246764 0.0 0.0 0.0 -0.000143993543754 6.49279073519e-05 -0.000100839952818
142 1 9.068977213 2.826994031 10.478246764 0.0 0.0 0.0 0.000108924146995 9.64453364829e-05 1.7889588795e-05
143 1 5.350572456 9.267459345 10.478246764 0.0 0.0 0.0 0.000116847584624 0.000106425934985 9.52935077975e-05
144 1 12.787381827 9.267459345 10.478246764 0.0 0.0 0.0 -0.00011887182144 5.45507091874e-05 0.00016774071797
145 2 12.258736453 12.880930313 6.469757221 0.0 0.0 0.0 2.98186226366e-05 0.000151270279928 -5.82885531603e-05
146 2 19.695545825 12.880930313 6.469757221 0.0 0.0 0.0 -0.000107204024223 3.91388933907e-05 -4.44347749946e-05
147 2 8.540331839 6.440464999 6.469757221 0.0 0.0 0.0 -0.00010193361139 -0.000114250576846 -4.34768086591e-05
148 2 15.97714121 6.440464999 6.469757221 0.0 0.0 0.0 1.06475880802e-05 -4.93568449638e-05 -4.99913254961e-05
149 2 12.258736496 12.880930306 13.40660736 0.0 0.0 0.0 -0.00990876810477 0.00944257034171 0.00392353989403
150 2 19.695545868 12.880930306 13.40660736 0.0 0.0 0.0 -0.000320428883239 0.000121865681879 -4.84999258197e-05
151 2 8.540331882 6.440464992 13.40660736 0.0 0.0 0.0 -0.000240886818778 -0.0004182380369 -5.60502462932e-05
152 2 15.977141254 6.440464992 13.40660736 0.0 0.0 0.0 0.000136324454811 -0.000201658350156 -4.27750544559e-05
153 1 5.331166141 0.766954845 6.788243965 0.0 0.0 0.0 -7.57848443285e-05 -3.73612826028e-05 -2.25621486412e-05
154 1 12.767975512 0.766954845 6.788243965 0.0 0.0 0.0 -4.19329739224e-05 -7.7091317886e-06 -2.40615843216e-05
155 1 9.049570755 7.207420159 6.788243965 0.0 0.0 0.0 -4.26596910131e-05 6.89888754872e-05 -2.53366709361e-05
156 1 16.486380127 7.207420159 6.788243965 0.0 0.0 0.0 -7.79120328917e-05 4.1396107989e-05 -2.54251274885e-05
157 1 5.331166184 0.766954838 13.725094105 0.0 0.0 0.0 0.00418523383093 0.00171886842248 -1.82666018034e-05
158 1 12.767975556 0.766954838 13.725094105 0.0 0.0 0.0 4.55415116333e-05 -7.76819292018e-05 -2.87712771453e-05
159 1 9.049570798 7.207420151 13.725094105 0.0 0.0 0.0 3.49890578517e-05 0.000309003211481 -2.28713738515e-05
160 1 16.48638017 7.207420151 13.725094105 0.0 0.0 0.0 -0.000112263064636 9.66666149118e-05 -2.296770644e-05
161 1 16.486380702 5.673510068 6.788243516 0.0 0.0 0.0 -9.17245883282e-05 6.24040887005e-06 -2.2711015437e-05
162 1 9.04957133 5.673510068 6.788243516 0.0 0.0 0.0 -3.31328217644e-05 3.27264888145e-05 -2.10806014091e-05
163 1 20.204785316 12.113975382 6.788243516 0.0 0.0 0.0 -2.62528404251e-05 -3.29346003848e-05 -2.0913188287e-05
164 1 12.767975944 12.113975382 6.788243516 0.0 0.0 0.0 -9.93357143801e-05 -8.51427668386e-05 -2.53907339493e-05
165 1 16.486380745 5.673510061 13.725093655 0.0 0.0 0.0 -0.00019644435161 0.000142312036217 -2.05903738084e-05
166 1 9.049571373 5.673510061 13.725093655 0.0 0.0 0.0 2.65377083687e-05 0.000141951116383 -2.38027209325e-05
167 1 20.204785359 12.113975375 13.725093655 0.0 0.0 0.0 0.000134415316034 -5.98832358017e-05 -3.14377553933e-05
168 1 12.767975987 12.113975375 13.725093655 0.0 0.0 0.0 -0.00218923650858 -0.00194506973618 0.000607444673239
169 2 12.462655523 4.175912014 6.46975888 0.0 0.0 0.0 2.32585499287e-05 -7.21248927553e-05 -5.17534954392e-05
170 2 5.025846151 4.175912014 6.46975888 0.0 0.0 0.0 7.6953657067e-06 -0.000109425680515 -7.77032429364e-05
171 2 16.181060137 10.616377328 6.46975888 0.0 0.0 0.0 1.41769726255e-05 -1.65663622048e-07 -5.57226316738e-05
172 2 8.744250765 10.616377328 6.46975888 0.0 0.0 0.0 6.14853121783e-07 -8.1544142782e-06 -2.44839150074e-05
173 2 12.462655566 4.175912007 13.406609019 0.0 0.0 0.0 4.28276673607e-05 -0.000120595909003 -5.71622107219e-05
174 2 5.025846194 4.175912007 13.406609019 0.0 0.0 0.0 -0.000277228255751 -0.00110432248004 5.76709724319e-05
175 2 16.18106018 10.616377321 13.406609019 0.0 0.0 0.0 -1.29126975555e-05 0.000141718970884 -4.81966150197e-05
176 2 8.744250808 10.616377321 13.406609019 0.0 0.0 0.0 -0.00270781973124 -0.00157453082911 -0.000184902366382
177 1 4.107023344 4.233448053 6.788243333 0.0 0.0 0.0 -3.65724571805e-06 -3.89351758149e-05 -2.13777291724e-05
178 1 11.543832716 4.233448053 6.788243333 0.0 0.0 0.0 2.75169047742e-05 -3.7962855617e-05 -2.05793218787e-05
179 1 7.825427958 10.673913367 6.788243333 0.0 0.0 0.0 4.35148680835e-05 -6.53091953505e-05 -1.68794108032e-05
180 1 15.26223733 10.673913367 6.788243333 0.0 0.0 0.0 -2.65171817286e-06 -9.20195894975e-05 -2.10589579752e-05
181 1 4.107023387 4.233448046 13.725093473 0.0 0.0 0.0 -4.95091090987e-05 0.000609870518971 -2.7447991692e-05
182 1 11.543832759 4.233448046 13.725093473 0.0 0.0 0.0 4.94744275677e-05 1.82797692499e-06 -2.00766844623e-05
183 1 7.825428001 10.67391336 13.725093473 0.0 0.0 0.0 0.000498052044529 -2.99788269801e-05 -0.000126626051149
184 1 15.262237373 10.67391336 13.725093473 0.0 0.0 0.0 -5.38221951044e-05 -0.000234717437994 -1.96128406827e-05
185 1 12.872237203 5.00040447 6.78824545 0.0 0.0 0.0 2.87668799736e-05 -2.93305549375e-05 -3.03199868777e-05
186 1 5.435427832 5.00040447 6.78824545 0.0 0.0 0.0 6.9018878555e-05 1.58572486741e-06 -3.03155858826e-05
187 1 16.590641818 11.440869783 6.78824545 0.0 0.0 0.0 6.74103944245e-05 -7.26665583257e-05 -2.86149914414e-05
188 1 9.153832446 11.440869783 6.78824545 0.0 0.0 0.0 2.97818126995e-05 -0.000102752506116 -2.95659392228e-05
189 1 12.872237247 5.000404462 13.72509559 0.0 0.0 0.0 -1.05122845391e-05 1.61121260424e-05 -2.73648771657e-05
190 1 5.435427875 5.000404462 13.72509559 0.0 0.0 0.0 0.00016580243868 0.000224305212752 -2.04842770483e-05
191 1 16.590641861 11.440869776 13.72509559 0.0 0.0 0.0 0.000142046046473 -0.000137243716589 -3.0926328871e-05
192 1 9.153832489 11.440869776 13.72509559 0.0 0.0 0.0 0.00514031814683 0.00124676765471 -0.00101605716294
193 2 1.307441393 2.264553585 6.469759523 0.0 0.0 0.0 9.47814107709e-05 0.000131839392785 -5.40830809954e-05
194 2 8.744250764 2.264553585 6.469759523 0.0 0.0 0.0 -6.27076116059e-05 4.0814242412e-05 -6.7991771613e-05
195 2 5.025846007 8.705018899 6.469759523 0.0 0.0 0.0 -4.56862205213e-05 -2.7322179268e-05 -5.28177722797e-05
196 2 12.462655379 8.705018899 6.469759523 0.0 0.0 0.0 8.77054124466e-05 2.14031200094e-05 -3.51142748101e-05
197 2 1.307441436 2.264553578 13.406609663 0.0 0.0 0.0 0.00141708817851 0.000903730299777 -0.000204900957799
198 2 8.744250808 2.264553578 13.406609663 0.0 0.0 0.0 -0.000468353006321 -3.43261217861e-05 -1.72106740102e-05
199 2 5.02584605 8.705018892 13.406609663 0.0 0.0 0.0 -0.00018635394597 -0.00016910389769 -5.46576351776e-05
200 2 12.462655422 8.705018892 13.406609663 0.0 0.0 0.0 0.000570674346929 -0.00052575046489 -0.000133193869747
201 1 1.717022388 1.440060952 6.788246651 0.0 0.0 0.0 5.68865560355e-06 -1.45288556048e-05 -3.64310876839e-05
202 1 9.15383176 1.440060952 6.788246651 0.0 0.0 0.0 8.38260928968e-05 3.90860445511e-05 -3.25350845215e-05
203 1 5.435427002 7.880526266 6.788246651 0.0 0.0 0.0 7.87030794929e-05 0.000102025425668 -3.15530277822e-05
204 1 12.872236374 7.880526266 6.788246651 0.0 0.0 0.0 1.54454280124e-05 7.31297746261e-05 -3.25923861991e-05
205 1 1.717022431 1.440060945 13.725096791 0.0 0.0 0.0 -0.00153635861311 -0.00254650060676 0.000863657069368
206 1 9.153831803 1.440060945 13.725096791 0.0 0.0 0.0 0.00023442233682 1.81762972359e-05 -3.28368021857e-05
207 1 5.435427045 7.880526258 13.725096791 0.0 0.0 0.0 0.000151153317112 0.000212570907388 -3.47286332292e-05
208 1 12.872236417 7.880526258 13.725096791 0.0 0.0 0.0 -8.65454276146e-05 0.000180715430898 -3.74194762165e-05
209 1 15.262237079 2.207018097 6.788243067 0.0 0.0 0.0 -1.16703433488e-05 2.44655696979e-05 -1.95839527104e-05
210 1 7.825427708 2.207018097 6.788243067 0.0 0.0 0.0 4.58888279268e-05 5.76898788428e-05 -1.46956277461e-05
211 1 18.980641693 8.647483411 6.788243067 0.0 0.0 0.0 3.093071765e-05 8.60964215428e-05 -1.58901497929e-05
212 1 11.543832322 8.647483411 6.788243067 0.0 0.0 0.0 -1.3263267492e-05 7.75927565808e-05 -1.86213454324e-05
213 1 15.262237122 2.207018089 13.725093207 0.0 0.0 0.0 -1.30784107499e-06 -0.000200436685261 2.56472534976e-06
214 1 7.825427751 2.207018089 13.725093207 0.0 0.0 0.0 0.000435898018775 0.000168178980575 -2.9913138594e-05
215 1 18.980641736 8.647483403 13.725093207 0.0 0.0 0.0 6.3356900103e-05 0.000132404377813 -1.81521569491e-05
216 1 11.543832365 8.647483403 13.725093207 0.0 0.0 0.0 -0.000220884969626 0.00062791709115 -9.4606968022e-07
217 2 10.05169036 12.880930562 3.001331049 0.0 0.0 0.0 0.000376053429109 0.000926952737849 0.00074071071616
218 2 17.488499731 12.880930562 3.001331049 0.0 0.0 0.0 -0.000104791404901 7.47607321422e-05 -8.65569861272e-05
219 2 6.333285745 6.440465248 3.001331049 0.0 0.0 0.0 -8.59541252869e-05 -0.000255757408558 -8.45989085804e-05
220 2 13.770095117 6.440465248 3.001331049 0.0 0.0 0.0 0.00017021533059 -0.000107581563283 -8.90663830603e-06
221 2 10.051690403 12.880930555 9.938181189 0.0 0.0 0.0 0.000356773999325 0.000638567960369 -0.000331081894681
222 2 17.488499774 12.880930555 9.938181189 0.0 0.0 0.0 -7.7975848773e-05 6.39319118945e-05 -5.1442975079e-06
223 2 6.333285789 6.440465241 9.938181189 0.0 0.0 0.0 -6.64787919005e-05 -0.000215805702574 -6.48904632253e-06
224 2 13.77009516 6.440465241 9.938181189 0.0 0.0 0.0 0.000153217412461 -8.88120602253e-05 -7.26957871529e-05
225 1 13.26085702 5.67351034 3.319819519 0.0 0.0 0.0 2.50700859425e-05 2.53464270911e-05 -3.72801236774e-05
226 1 5.824047648 5.67351034 3.319819519 0.0 0.0 0.0 0.000115383838677 0.000116490685621 4.10817904139e-05
227 1 16.979261634 12.113975653 3.319819519 0.0 0.0 0.0 0.000111663085671 -6.44517879059e-05 -8.13147160709e-06
228 1 9.542452262 12.113975653 3.319819519 0.0 0.0 0.0 0.000176151497677 -0.000144020844506 -0.000465131940082
229 1 13.260857063 5.673510332 10.256669659 0.0 0.0 0.0 2.22131822903e-05 2.64062879355e-05 -2.07930547974e-05
230 1 5.824047691 5.673510332 10.256669659 0.0 0.0 0.0 0.000116652020141 0.000112757990882 -9.5923566208e-05
231 1 16.979261677 12.113975646 10.256669659 0.0 0.0 0.0 0.000113022316612 -6.20987540574e-05 -4.86978545402e-05
232 1 9.542452305 12.113975646 10.256669659 0.0 0.0 0.0 5.58020422139e-05 -0.00022866078515 0.000447614853421
233 1 2.105642892 0.766955018 3.319818703 0.0 0.0 0.0 -0.000122810323183 -0.000284808007931 -2.95217465275e-05
234 1 9.542452263 0.766955018 3.319818703 0.0 0.0 0.0 0.000149411939949 -7.70123246398e-06 1.70172619458e-05
235 1 5.824047506 7.207420332 3.319818703 0.0 0.0 0.0 0.000119381320939 0.000115311078432 -2.87728760492e-05
236 1 13.260856878 7.207420332 3.319818703 0.0 0.0 0.0 -9.98594730409e-06 7.92535472298e-05 -6.9443019122e-05
237 1 2.105642935 0.766955011 10.256668843 0.0 0.0 0.0 -0.000148836713258 -0.000313605458279 -6.51013035192e-05
238 1 9.542452307 0.766955011 10.256668843 0.0 0.0 0.0 0.000145741140433 -8.11263612907e-06 -6.48976160112e-05
239 1 5.824047549 7.207420325 10.256668843 0.0 0.0 0.0 0.000121821175885 0.000119458363528 -2.07490120872e-05
240 1 13.260856921 7.207420325 10.256668843 0.0 0.0 0.0 -8.39785595794e-06 7.58166471903e-05 1.75811027643e-05
241 2 13.566178647 2.264553318 3.001331607 0.0 0.0 0.0 -2.93016477608e-05 0.000158281890643 -1.71275976233e-05
242 2 6.129369276 2.264553318 3.001331607 0.0 0.0 0.0 -0.000396736081898 -6.48287252105e-05 -0.000678938798679
243 2 17.284583261 8.705018632 3.001331607 0.0 0.0 0.0 -2.03540503053e-05 -2.46616911345e-05 -5.4049390077e-05
244 2 9.84777389 8.705018632 3.001331607 0.0 0.0 0.0 -7.02990657152e-05 -0.000322811243405 0.000319797594909
245 2 13.56617869 2.26455331 9.938181747 0.0 0.0 0.0 -1.29594598705e-05 0.000145937669523 -6.95008304158e-05
246 2 6.129369319 2.26455331 9.938181747 0.0 0.0 0.0 -0.000229614124608 1.7384625675e-05 0.000389901432634
247 2 17.284583305 8.705018624 9.938181747 0.0 0.0 0.0 -2.49418907844e-05 -1.88117505963e-05 -3.9498269703e-05
248 2 9.847773933 8.705018624 9.938181747 0.0 0.0 0.0 -3.35961844215e-05 -0.000207108422506 -0.000343742952985
249 1 14.485000752 2.20701716 3.319818255 0.0 0.0 0.0 -5.78154376924e-05 -2.84544583747e-05 -3.67911785283e-05
250 1 7.048191381 2.20701716 3.319818255 0.0 0.0 0.0 0.000125282147309 8.09245052959e-05 0.000104184157237
251 1 18.203405367 8.647482473 3.319818255 0.0 0.0 0.0 1.35212536401e-05 0.000105917843246 -2.49457591978e-05
252 1 10.766595995 8.647482473 3.319818255 0.0 0.0 0.0 -8.10885198795e-05 0.000196404018813 -0.000201889092874
253 1 14.485000796 2.207017152 10.256668395 0.0 0.0 0.0 -7.23299519846e-05 -3.06670837882e-05 -2.24061954937e-05
254 1 7.048191424 2.207017152 10.256668395 0.0 0.0 0.0 0.000125613875558 8.4339824447e-05 -0.000165859142902
255 1 18.20340541 8.647482466 10.256668395 0.0 0.0 0.0 1.49299645574e-05 0.0001070966522 -2.60445585101e-05
256 1 10.766596038 8.647482466 10.256668395 0.0 0.0 0.0 -8.13789206086e-05 0.000189394956639 0.00014485093647
257 1 5.719786092 1.440061854 3.319818129 0.0 0.0 0.0 5.97634912213e-05 -6.72909849714e-05 0.000398271275344
258 1 13.156595464 1.440061854 3.319818129 0.0 0.0 0.0 1.50048600221e-06 -5.59956230897e-06 -4.80831021515e-05
259 1 9.438190706 7.880527168 3.319818129 0.0 0.0 0.0 4.33859671747e-06 0.00017598271724 -9.91429409989e-05
260 1 16.875000078 7.880527168 3.319818129 0.0 0.0 0.0 -7.46863629358e-05 8.90275232095e-05 -1.34377743952e-05
261 1 5.719786135 1.440061847 10.256668269 0.0 0.0 0.0 5.20764168965e-05 -5.54037797508e-05 -0.000382590700893
262 1 13.156595507 1.440061847 10.256668269 0.0 0.0 0.0 -1.07544190406e-06 -1.47310034792e-05 4.14102224271e-06
263 1 9.438190749 7.880527161 10.256668269 0.0 0.0 0.0 -2.98981843755e-07 0.000186647249742 6.16742608015e-05
264 1 16.875000121 7.880527161 10.256668269 0.0 0.0 0.0 -7.20322755495e-05 8.9675469878e-05 -3.31395398169e-05
265 2 2.410964342 4.175911908 3.001332195 0.0 0.0 0.0 0.000218433120412 -0.000240799741394 -0.000316845017263
266 2 9.847773713 4.175911908 3.001332195 0.0 0.0 0.0 -0.000137204462858 -0.000175209035693 -6.59723303702e-05
267 2 6.129368956 10.616377222 3.001332195 0.0 0.0 0.0 -0.000264984187763 -6.31782591891e-05 0.000109646516085
268 2 13.566178327 10.616377222 3.001332195 0.0 0.0 0.0 0.000280955465538 0.000239479910892 4.54882614527e-05
269 2 2.410964385 4.175911901 9.938182334 0.0 0.0 0.0 0.000148301637369 -0.000185934466876 0.00017826308753
270 2 9.847773757 4.175911901 9.938182334 0.0 0.0 0.0 -0.000116946259383 -0.000155091224937 -3.06046723605e-05
271 2 6.129368999 10.616377215 9.938182334 0.0 0.0 0.0 -0.000229386623302 -6.39050707527e-05 -0.000206080242178
272 2 13.566178371 10.616377215 9.938182334 0.0 0.0 0.0 0.000176283023127 0.000166112501607 -0.000109183110441