ITEM: TIMESTEP
0
ITEM: NUMBER OF ATOMS
288
ITEM: BOX BOUNDS xy xz yz xx yy zz
0.0 14.873618743 7.436809228
0.0 12.880930628 8.6e-08
0.0 13.87370028 -1.5e-08
ITEM: ATOMS id type x y z vx vy vz fx fy fz
1 2 2.338671397 1.12e-07 0.380392751 0.0 0.0 0.0 -0.0337490685843 -0.0174987708394 -0.028439401585
2 2 9.775480768 1.12e-07 0.380392751 0.0 0.0 0.0 0.000251983284397 -8.54066081662e-05 1.71922804898e-05
3 2 6.057076011 6.440465426 0.380392751 0.0 0.0 0.0 0.000251623399691 0.00038712059694 1.74281244289e-05
4 2 13.493885382 6.440465426 0.380392751 0.0 0.0 0.0 -0.000157087843041 0.000151087141219 1.35486595705e-05
5 2 2.33867144 1.04e-07 7.317242891 0.0 0.0 0.0 -8.43839515878e-05 -0.000195558064546 2.04267511506e-05
6 2 9.775480812 1.04e-07 7.317242891 0.0 0.0 0.0 0.000102986513115 -3.51054350152e-05 1.54594237436e-05
7 2 6.057076054 6.440465418 7.317242891 0.0 0.0 0.0 0.00010295336073 0.000129174140885 1.53276586679e-05
8 2 13.493885426 6.440465418 7.317242891 0.0 0.0 0.0 -3.92372826004e-05 4.71023446699e-05 1.74613874898e-05
9 1 2.395632363 -0.008659793 1.351465958 0.0 0.0 0.0 0.0305874838906 0.0235321103017 0.00920233313164
10 1 9.837441735 4.61e-07 1.351465958 0.0 0.0 0.0 -8.11581159233e-05 4.42906890587e-05 3.93164264737e-05
11 1 6.119036977 6.440465774 1.351465958 0.0 0.0 0.0 -8.12869879529e-05 -0.000214137214378 3.93579776618e-05
12 1 13.555846349 6.440465774 1.351465958 0.0 0.0 0.0 0.000142687158808 -8.48299804565e-05 3.79185833948e-05
13 1 2.400632406 4.53e-07 8.288316098 0.0 0.0 0.0 8.10540143026e-05 6.68591266551e-05 4.01296117285e-05
14 1 9.837441778 4.53e-07 8.288316098 0.0 0.0 0.0 9.83097450273e-06 1.3783817392e-05 3.83273682495e-05
15 1 6.11903702 6.440465767 8.288316098 0.0 0.0 0.0 9.82008867423e-06 -5.64314039134e-05 3.83056994875e-05
16 1 13.555846392 6.440465767 8.288316098 0.0 0.0 0.0 7.06734089889e-05 -2.129867225e-05 3.90899045409e-05
17 1 10.701141082 12.880930558 0.072968506 0.0 0.0 0.0 0.00646489784378 0.000961601587248 0.0189014763192
18 1 18.137950453 12.880930558 0.072968506 0.0 0.0 0.0 -5.19136161107e-05 5.19142047855e-05 3.41676235622e-05
19 1 6.982736468 6.440465244 0.072968506 0.0 0.0 0.0 -3.00971087339e-05 -0.000179658051154 3.58340450536e-05
20 1 14.419545839 6.440465244 0.072968506 0.0 0.0 0.0 0.000142658795944 -7.95458418772e-05 7.11066375887e-05
21 1 10.701141125 12.880930551 7.009818646 0.0 0.0 0.0 0.000121318068908 0.000118086505679 1.71155378579e-05
22 1 18.137950497 12.880930551 7.009818646 0.0 0.0 0.0 2.1137346792e-05 2.30899201085e-05 6.61713726549e-05
23 1 6.982736511 6.440465237 7.009818646 0.0 0.0 0.0 2.39378688729e-05 -7.05938964484e-05 6.57875645953e-05
24 1 14.419545882 6.440465237 7.009818646 0.0 0.0 0.0 9.62910219379e-05 -2.87992379226e-05 4.53199969523e-05
25 2 13.704282012 2.025348059 0.380394512 0.0 0.0 0.0 -0.000279991957915 -0.000384743983033 3.20674274612e-06
26 2 6.26747264 2.025348059 0.380394512 0.0 0.0 0.0 0.000845746650133 0.000265005199769 -0.00034302300432
27 2 17.422686626 8.465813373 0.380394512 0.0 0.0 0.0 7.42244392218e-05 0.000170791905996 8.55930068178e-06
28 2 9.985877254 8.465813373 0.380394512 0.0 0.0 0.0 -0.000277804052838 0.000935150401579 0.00038085585413
29 2 13.704282055 2.025348052 7.317244652 0.0 0.0 0.0 -6.24716109814e-05 -5.05665528032e-05 1.03483458019e-05
30 2 6.267472684 2.025348052 7.317244652 0.0 0.0 0.0 5.95487053591e-05 1.99101563823e-05 9.53848538709e-05
31 2 17.422686669 8.465813365 7.317244652 0.0 0.0 0.0 2.09350147269e-05 8.57033613668e-05 8.84941778845e-06
32 2 9.985877298 8.465813365 7.317244652 0.0 0.0 0.0 -6.24423636225e-05 8.27458873444e-05 -7.83160337001e-05
33 1 13.673300338 2.079010187 1.351467718 0.0 0.0 0.0 0.000142947925257 0.000297237747928 3.00320434971e-05
34 1 6.236490966 2.079010187 1.351467718 0.0 0.0 0.0 -0.000571378446353 -0.000119849694263 3.56463447598e-05
35 1 17.391704952 8.519475501 1.351467718 0.0 0.0 0.0 -6.19770493441e-05 -5.36767871986e-05 3.19471071068e-05
36 1 9.95489558 8.519475501 1.351467718 0.0 0.0 0.0 0.000138501366294 -0.000531381104279 3.56627940339e-05
37 1 13.673300381 2.07901018 8.288317858 0.0 0.0 0.0 4.97708000757e-06 6.14264682529e-05 3.22888849706e-05
38 1 6.236491009 2.07901018 8.288317858 0.0 0.0 0.0 -3.97980445958e-05 3.54991909042e-05 3.16405433743e-05
39 1 17.391704995 8.519475493 8.288317858 0.0 0.0 0.0 -2.98341327868e-05 1.53696813547e-06 3.17576083062e-05
40 1 9.954895623 8.519475493 8.288317858 0.0 0.0 0.0 4.91438343001e-06 1.00699821847e-05 3.16417442172e-05
41 1 13.241451457 2.826992613 0.072968839 0.0 0.0 0.0 6.01659292341e-05 9.62937929783e-05 7.23671067782e-05
42 1 5.804642085 2.826992613 0.072968839 0.0 0.0 0.0 -0.000336944861165 -0.000173280661386 0.000277052093909
43 1 16.959856071 9.267457927 0.072968839 0.0 0.0 0.0 -7.23670817652e-05 3.85897966857e-05 5.14890883311e-05
44 1 9.523046699 9.267457927 0.072968839 0.0 0.0 0.0 6.68218152816e-05 -0.000564255803258 -0.000457214803003
45 1 13.2414515 2.826992606 7.009818978 0.0 0.0 0.0 -3.81101477087e-06 8.00122838108e-05 4.78025660795e-05
46 1 5.804642128 2.826992606 7.009818978 0.0 0.0 0.0 -7.57874656069e-05 3.57248021107e-05 -1.54637775159e-05
47 1 16.959856114 9.26745792 7.009818978 0.0 0.0 0.0 -5.01306308467e-05 4.755690824e-05 5.66806139852e-05
48 1 9.523046743 9.26745792 7.009818978 0.0 0.0 0.0 -3.1555249677e-06 4.23983854815e-05 0.000143701971133
49 2 17.422687622 4.415117298 0.380394729 0.0 0.0 0.0 -0.000202117141629 0.000914721373406 -0.000369447164804
50 2 9.985878251 4.415117298 0.380394729 0.0 0.0 0.0 5.60304169696e-05 0.000105163200143 9.54072921466e-06
51 2 21.141092236 10.855582612 0.380394729 0.0 0.0 0.0 0.000964128273241 0.000271856551877 0.000414962622539
52 2 13.704282865 10.855582612 0.380394729 0.0 0.0 0.0 -0.000203965538744 -0.000402134041909 4.40167831371e-06
53 2 17.422687665 4.415117291 7.317244869 0.0 0.0 0.0 -5.46551067763e-05 3.10389954445e-05 9.95690643355e-05
54 2 9.985878294 4.415117291 7.317244869 0.0 0.0 0.0 1.45836053103e-05 2.58924506496e-05 9.80101330526e-06
55 2 21.14109228 10.855582605 7.317244869 0.0 0.0 0.0 5.41258652033e-05 -4.02965883139e-05 -8.08513156836e-05
56 2 13.704282908 10.855582605 7.317244869 0.0 0.0 0.0 -5.47134767098e-05 -0.000103122724805 1.13325299406e-05
57 1 2.518088606 4.36145465 1.351467896 0.0 0.0 0.0 7.40153793377e-05 -0.000615012041935 2.86895448189e-05
58 1 9.954897977 4.36145465 1.351467896 0.0 0.0 0.0 -5.39364512999e-05 -0.000100821252334 3.28692272744e-05
59 1 6.23649322 10.801919964 1.351467896 0.0 0.0 0.0 -0.000695268295836 -0.000234456058552 3.40164195265e-05
60 1 13.673302591 10.801919964 1.351467896 0.0 0.0 0.0 7.38389241427e-05 0.000204277553116 3.36795480104e-05
61 1 2.518088649 4.361454643 8.288318036 0.0 0.0 0.0 -5.61320929698e-06 -4.73093654773e-05 3.36267233345e-05
62 1 9.95489802 4.361454643 8.288318036 0.0 0.0 0.0 -3.13779444239e-05 -5.06803654148e-05 3.32737193297e-05
63 1 6.236493263 10.801919957 8.288318036 0.0 0.0 0.0 -4.15860224101e-05 -1.63762923449e-05 3.30142545308e-05
64 1 13.673302635 10.801919957 8.288318036 0.0 0.0 0.0 -5.61545138627e-06 4.31143189083e-06 3.3049542711e-05
65 1 16.959856167 3.613473172 0.07296928 0.0 0.0 0.0 0.000255994252492 -0.000572561693603 0.000508008470353
66 1 9.523046796 3.613473172 0.07296928 0.0 0.0 0.0 -0.000101712557538 -0.000101929871403 6.52056990711e-05
67 1 20.678260782 10.053938486 0.07296928 0.0 0.0 0.0 -0.000237150491983 -0.000197564799952 -5.49277602085e-05
68 1 13.24145141 10.053938486 0.07296928 0.0 0.0 0.0 0.000169090404532 -2.75257025981e-06 3.27083274539e-06
69 1 16.959856211 3.613473164 7.00981942 0.0 0.0 0.0 1.83238669405e-05 -6.82993847287e-05 -2.52456973771e-05
70 1 9.523046839 3.613473164 7.00981942 0.0 0.0 0.0 -5.99511137781e-05 -8.11192890122e-05 4.73039976828e-05
71 1 20.678260825 10.053938478 7.00981942 0.0 0.0 0.0 -8.14511311755e-05 -8.73165403794e-05 0.000105509815372
72 1 13.241451453 10.053938478 7.00981942 0.0 0.0 0.0 1.48330342345e-05 -3.43995050539e-05 6.92323020081e-05
73 2 5.098138192 9.1e-08 3.848820961 0.0 0.0 0.0 0.000330478913168 -0.000895792535089 0.000836142313481
74 2 12.534947564 9.1e-08 3.848820961 0.0 0.0 0.0 0.000236591960657 -0.000208931669436 -0.000156744066759
75 2 8.816542806 6.440465404 3.848820961 0.0 0.0 0.0 4.31886850118e-05 0.000307758132463 -7.58889404532e-05
76 2 16.253352178 6.440465404 3.848820961 0.0 0.0 0.0 -0.000120615823261 0.000212208793085 7.95794517445e-05
77 2 5.098138235 8.3e-08 10.785671101 0.0 0.0 0.0 -6.32722122739e-05 -0.00020190474566 -0.000137011175537
78 2 12.534947607 8.3e-08 10.785671101 0.0 0.0 0.0 4.65163056292e-05 -9.4547528994e-05 9.01952664766e-05
79 2 8.816542849 6.440465397 10.785671101 0.0 0.0 0.0 8.09016676884e-06 0.000146440399929 6.28942741187e-05
80 2 16.253352221 6.440465397 10.785671101 0.0 0.0 0.0 -7.54046196701e-05 9.78862803009e-05 -4.31376720098e-05
81 1 12.472986142 12.880930033 4.819894401 0.0 0.0 0.0 -3.48715339707e-05 0.000177092246389 -0.000129321792941
82 1 19.909795513 12.880930033 4.819894401 0.0 0.0 0.0 -0.000112116977544 7.53694957919e-05 0.00010228455538
83 1 8.754581528 6.440464719 4.819894401 0.0 0.0 0.0 -6.5992456669e-05 -0.000104789283405 7.11746040648e-05
84 1 16.191390899 6.440464719 4.819894401 0.0 0.0 0.0 -1.18969516935e-05 -7.33067766084e-05 -7.89112716557e-06
85 1 12.472986185 12.880930026 11.756744541 0.0 0.0 0.0 -3.52228981963e-05 0.000176648199938 0.000187442044039
86 1 19.909795557 12.880930026 11.756744541 0.0 0.0 0.0 -0.000112037730459 7.54396476884e-05 -4.42880063317e-05
87 1 8.754581571 6.440464712 11.756744541 0.0 0.0 0.0 -6.59143816237e-05 -0.000104837271723 -1.31874166306e-05
88 1 16.191390943 6.440464712 11.756744541 0.0 0.0 0.0 -1.18741399276e-05 -7.32811038299e-05 6.58873219757e-05
89 1 4.172478132 1.2e-08 3.541396305 0.0 0.0 0.0 -0.000257819592857 0.00125984230393 -0.00106861083549
90 1 11.609287504 1.2e-08 3.541396305 0.0 0.0 0.0 -0.000189512945822 5.95664124685e-05 8.14677361447e-05
91 1 7.890882746 6.440465326 3.541396305 0.0 0.0 0.0 -0.000148216523908 -0.00018165061249 7.95108278441e-05
92 1 15.327692118 6.440465326 3.541396305 0.0 0.0 0.0 1.06158557848e-05 -8.95487703312e-05 3.27727463947e-05
93 1 4.172478175 5e-09 10.478246445 0.0 0.0 0.0 -1.93747292597e-05 9.85228823665e-05 9.08806933599e-05
94 1 11.609287547 5e-09 10.478246445 0.0 0.0 0.0 -0.000104842808959 2.37533282113e-05 3.89811443185e-05
95 1 7.890882789 6.440465319 10.478246445 0.0 0.0 0.0 -0.000100191096931 -6.92395911174e-05 3.87254637881e-05
96 1 15.327692161 6.440465319 10.478246445 0.0 0.0 0.0 -3.40273154732e-05 -3.09654551821e-05 6.54607296058e-05
97 2 12.324550744 4.415115375 3.848820709 0.0 0.0 0.0 -9.05784160058e-05 1.41347664545e-05 2.19151951232e-05
98 2 4.887741372 4.415115375 3.848820709 0.0 0.0 0.0 0.000281018070277 0.000419514693208 0.000301097905759
99 2 16.042955358 10.855580689 3.848820709 0.0 0.0 0.0 0.000100610264342 -8.23684949612e-05 1.77999439939e-05
100 2 8.606145986 10.855580689 3.848820709 0.0 0.0 0.0 0.000293344607782 0.000569660674147 -0.00179382995755
101 2 12.324550787 4.415115367 10.785670849 0.0 0.0 0.0 -4.00960861363e-05 -2.67063877994e-06 3.79485385642e-06
102 2 4.887741415 4.415115367 10.785670849 0.0 0.0 0.0 9.67051163271e-05 0.000111957404986 -0.000138785472559
103 2 16.042955401 10.855580681 10.785670849 0.0 0.0 0.0 6.05773829844e-05 -5.19756031605e-05 6.85899834002e-06
104 2 8.606146029 10.855580681 10.785670849 0.0 0.0 0.0 -4.66609675203e-05 -0.000106736325083 0.000306626330227
105 1 12.355530592 4.361455296 4.81989398 0.0 0.0 0.0 5.94102422183e-05 -5.10376263561e-05 2.98842973774e-05
106 1 4.91872122 4.361455296 4.81989398 0.0 0.0 0.0 -4.62999483072e-05 -0.000156028252699 -8.60788900354e-05
107 1 16.073935206 10.801920609 4.81989398 0.0 0.0 0.0 -1.01161857516e-05 -9.92323194891e-06 2.96783454933e-05
108 1 8.637125834 10.801920609 4.81989398 0.0 0.0 0.0 5.06912983769e-05 3.09944164205e-05 0.000378757224795
109 1 12.355530635 4.361455288 11.75674412 0.0 0.0 0.0 6.01922334186e-05 -5.04956582091e-05 3.76010391194e-05
110 1 4.918721263 4.361455288 11.75674412 0.0 0.0 0.0 -4.81989180616e-05 -0.000154739972125 0.000153244841983
111 1 16.073935249 10.801920602 11.75674412 0.0 0.0 0.0 -1.02220845875e-05 -1.08162144554e-05 3.74014816515e-05
112 1 8.637125877 10.801920602 11.75674412 0.0 0.0 0.0 6.52913649963e-05 2.28453575237e-05 -0.000312408608845
113 1 12.787381758 3.613470486 3.541396271 0.0 0.0 0.0 0.000107292452433 -2.60901662572e-05 4.08723455335e-05
114 1 5.350572387 3.613470486 3.541396271 0.0 0.0 0.0 -0.00023149892906 -0.00030699655934 -0.000141297414612
115 1 16.505786372 10.0539358 3.541396271 0.0 0.0 0.0 -1.15555293127e-05 -6.34648452566e-05 5.85793052022e-05
116 1 9.068977001 10.0539358 3.541396271 0.0 0.0 0.0 5.22796124606e-05 -0.000758738328546 0.000735386242104
117 1 12.787381802 3.613470479 10.478246411 0.0 0.0 0.0 5.50659164556e-05 -4.19123138312e-05 6.1332660409e-05
118 1 5.35057243 3.613470479 10.478246411 0.0 0.0 0.0 -1.12337409344e-05 -8.44343993551e-05 0.00012019004417
119 1 16.505786416 10.053935793 10.478246411 0.0 0.0 0.0 1.00514098784e-05 -6.12541722084e-05 5.15610217929e-05
120 1 9.068977044 10.053935793 10.478246411 0.0 0.0 0.0 5.67583252934e-05 -5.85275479823e-05 -3.36727438656e-05
121 2 16.042954883 2.025349614 3.848821218 0.0 0.0 0.0 -0.000997689301869 -0.000122834714464 0.000959380123164
122 2 8.606145512 2.025349614 3.848821218 0.0 0.0 0.0 0.000234380647174 4.30841096159e-05 7.50033214755e-05
123 2 19.761359497 8.465814928 3.848821218 0.0 0.0 0.0 0.000247742469834 0.000255886087115 -7.64455002519e-05
124 2 12.324550126 8.465814928 3.848821218 0.0 0.0 0.0 -0.000279860562644 0.000142865346577 -0.000131503207299
125 2 16.042954927 2.025349607 10.785671358 0.0 0.0 0.0 -0.000148481652236 -0.000116398617449 -0.000152014409236
126 2 8.606145555 2.025349607 10.785671358 0.0 0.0 0.0 0.000118560628191 2.93858120167e-05 -3.39449866613e-05
127 2 19.761359541 8.46581492 10.785671358 0.0 0.0 0.0 0.00012362743752 0.000138638307888 6.90788681089e-05
128 2 12.324550169 8.46581492 10.785671358 0.0 0.0 0.0 -9.9859591558e-05 4.53828898987e-05 8.2797753216e-05
129 1 16.07393341 2.079010738 4.819894452 0.0 0.0 0.0 0.000187523816929 0.000170311824957 -0.000131960150725
130 1 8.637124038 2.079010738 4.819894452 0.0 0.0 0.0 -5.12193472606e-05 2.77552551674e-05 -2.05916978763e-07
131 1 19.792338024 8.519476052 4.819894452 0.0 0.0 0.0 -4.99282118974e-05 -5.21018008963e-05 7.29894003848e-05
132 1 12.355528653 8.519476052 4.819894452 0.0 0.0 0.0 0.000116806383143 8.40612317971e-08 9.50148724797e-05
133 1 16.073933453 2.079010731 11.756744592 0.0 0.0 0.0 0.000187270203237 0.000152889012423 0.00021285983051
134 1 8.637124082 2.079010731 11.756744592 0.0 0.0 0.0 -4.97243653763e-05 2.7631269923e-05 6.71471412148e-05
135 1 19.792338067 8.519476045 11.756744592 0.0 0.0 0.0 -5.15027631451e-05 -5.29760628785e-05 -6.26499937545e-06
136 1 12.355528696 8.519476045 11.756744592 0.0 0.0 0.0 0.000116815311654 2.322106743e-06 -2.69016469379e-05
137 1 1.632167798 2.826994038 3.541396624 0.0 0.0 0.0 0.00046155333155 -0.000408857616191 -0.000512032336518
138 1 9.06897717 2.826994038 3.541396624 0.0 0.0 0.0 -5.89679282982e-05 2.01114009806e-05 4.1579677125e-05
139 1 5.350572412 9.267459352 3.541396624 0.0 0.0 0.0 -0.000168620681124 -7.31914234871e-05 0.000143723436231
140 1 12.787381784 9.267459352 3.541396624 0.0 0.0 0.0 0.000224798528969 6.86649381775e-05 0.000116691616718
141 1 1.632167841 2.826994031 10.478246764 0.0 0.0 0.0 7.72774416109e-05 6.43592417418e-05 0.000132506151186
142 1 9.068977213 2.826994031 10.478246764 0.0 0.0 0.0 -7.31218277629e-06 3.9905062768e-05 6.32034928705e-05
143 1 5.350572456 9.267459345 10.478246764 0.0 0.0 0.0 -2.41121899407e-05 2.41313053686e-05 1.03616210334e-05
144 1 12.787381827 9.267459345 10.478246764 0.0 0.0 0.0 7.24349103517e-05 7.56936734689e-05 3.60096930164e-05
145 2 12.258736453 12.880930313 6.469757221 0.0 0.0 0.0 -6.99074028405e-05 -0.000199787605581 9.30353068987e-05
146 2 19.695545825 12.880930313 6.469757221 0.0 0.0 0.0 2.70693550056e-05 -8.77808558867e-05 -0.000119727289535
147 2 8.540331839 6.440464999 6.469757221 0.0 0.0 0.0 -7.15044960669e-06 0.000138325455195 -9.70346974422e-05
148 2 15.97714121 6.440464999 6.469757221 0.0 0.0 0.0 -8.72785567777e-05 9.18250913937e-05 -1.92540406786e-06
149 2 12.258736496 12.880930306 13.40660736 0.0 0.0 0.0 0.000326205569962 -0.000971007582685 -0.00110550645732
150 2 19.695545868 12.880930306 13.40660736 0.0 0.0 0.0 0.000260464373293 -0.000227603950109 0.000120251556683
151 2 8.540331882 6.440464992 13.40660736 0.0 0.0 0.0 3.18206041485e-05 0.00032730706154 3.22738847453e-05
152 2 15.977141254 6.440464992 13.40660736 0.0 0.0 0.0 -0.00013891807231 0.000227398089614 -0.000119406805124
153 1 5.331166141 0.766954845 6.788243965 0.0 0.0 0.0 -8.74912818566e-05 6.50601818905e-05 -0.000107225296734
154 1 12.767975512 0.766954845 6.788243965 0.0 0.0 0.0 -6.60750519398e-05 7.00785784091e-05 -4.37833052835e-06
155 1 9.049570755 7.207420159 6.788243965 0.0 0.0 0.0 -6.0752664938e-05 -4.39586815251e-05 1.93720622751e-05
156 1 16.486380127 7.207420159 6.788243965 0.0 0.0 0.0 -5.99326448389e-05 -2.30617668822e-05 -3.34579417769e-05
157 1 5.331166184 0.766954838 13.725094105 0.0 0.0 0.0 -0.000675125635848 0.000136788898307 0.000539138900841
158 1 12.767975556 0.766954838 13.725094105 0.0 0.0 0.0 -0.000147507418486 0.000216868144751 -9.17928914631e-05
159 1 9.049570798 7.207420151 13.725094105 0.0 0.0 0.0 -6.61352864669e-05 -0.00022289277406 -0.000115019621806
160 1 16.48638017 7.207420151 13.725094105 0.0 0.0 0.0 -5.54283146956e-05 -7.67003331703e-05 -1.15645875016e-05
161 1 16.486380702 5.673510068 6.788243516 0.0 0.0 0.0 -3.73285348099e-05 -6.48081762546e-05 -6.05995517916e-05
162 1 9.04957133 5.673510068 6.788243516 0.0 0.0 0.0 -7.87491127846e-05 -6.84911577007e-05 -1.62993785884e-05
163 1 20.204785316 12.113975382 6.788243516 0.0 0.0 0.0 -0.000103716956037 1.41355637659e-05 2.83702835943e-05
164 1 12.767975944 12.113975382 6.788243516 0.0 0.0 0.0 -3.69381251646e-05 6.01402990415e-05 -3.67932509284e-05
165 1 16.486380745 5.673510061 13.725093655 0.0 0.0 0.0 1.21241825671e-05 -0.000210709470998 5.65814193928e-05
166 1 9.049571373 5.673510061 13.725093655 0.0 0.0 0.0 -9.72213418116e-05 -0.000135684601157 -3.0487389534e-05
167 1 20.204785359 12.113975375 13.725093655 0.0 0.0 0.0 -0.000355304834656 6.38755187878e-05 -0.000175193765413
168 1 12.767975987 12.113975375 13.725093655 0.0 0.0 0.0 -5.9206602635e-05 0.000464108179136 6.82735437476e-05
169 2 12.462655523 4.175912014 6.46975888 0.0 0.0 0.0 -3.21494891862e-05 -2.09642250506e-05 -4.75091941449e-05
170 2 5.025846151 4.175912014 6.46975888 0.0 0.0 0.0 9.52042382295e-05 8.74808314337e-05 8.2069479043e-05
171 2 16.181060137 10.616377328 6.46975888 0.0 0.0 0.0 6.20365714619e-05 -6.84202187263e-05 -4.95590944858e-05
172 2 8.744250765 10.616377328 6.46975888 0.0 0.0 0.0 -2.42151037209e-05 -0.000102862473229 -0.000333876624672
173 2 12.462655566 4.175912007 13.406609019 0.0 0.0 0.0 -9.32401887484e-05 -1.32373383796e-06 -6.58900800429e-05
174 2 5.025846194 4.175912007 13.406609019 0.0 0.0 0.0 0.000314972212573 0.000445988616788 -0.000352379215254
175 2 16.18106018 10.616377321 13.406609019 0.0 0.0 0.0 0.000109977432965 -0.000102536040893 -6.23793828753e-05
176 2 8.744250808 10.616377321 13.406609019 0.0 0.0 0.0 0.000305194897618 0.000711825077955 0.00243866972353
177 1 4.107023344 4.233448053 6.788243333 0.0 0.0 0.0 5.18581395659e-06 -0.000112984112209 -9.38014017654e-05
178 1 11.543832716 4.233448053 6.788243333 0.0 0.0 0.0 1.75743698275e-05 -7.79406975808e-05 -1.83313608702e-05
179 1 7.825427958 10.673913367 6.788243333 0.0 0.0 0.0 -8.6289352157e-06 -5.06738105599e-05 7.84855616938e-05
180 1 15.26223733 10.673913367 6.788243333 0.0 0.0 0.0 1.27015855781e-05 -3.63862465938e-05 -2.59108560781e-05
181 1 4.107023387 4.233448046 13.725093473 0.0 0.0 0.0 -9.66485954152e-05 -0.000439071450278 0.000206053060876
182 1 11.543832759 4.233448046 13.725093473 0.0 0.0 0.0 2.55699616136e-05 -9.34307915037e-05 -2.31367466078e-05
183 1 7.825428001 10.67391336 13.725093473 0.0 0.0 0.0 -0.000656910089835 -0.000512173032917 -0.000702871844887
184 1 15.262237373 10.67391336 13.725093473 0.0 0.0 0.0 4.3191803524e-06 1.03842121994e-05 -9.11263933843e-06
185 1 12.872237203 5.00040447 6.78824545 0.0 0.0 0.0 8.33319821811e-05 -7.16111264381e-05 -3.3354873948e-05
186 1 5.435427832 5.00040447 6.78824545 0.0 0.0 0.0 5.4464649514e-06 -0.000119511387471 -5.40436820687e-05
187 1 16.590641818 11.440869783 6.78824545 0.0 0.0 0.0 9.58611533456e-06 -3.34481189274e-05 -3.02591989769e-05
188 1 9.153832446 11.440869783 6.78824545 0.0 0.0 0.0 0.00010749515206 4.63967873584e-05 5.88444831352e-05
189 1 12.872237247 5.000404462 13.72509559 0.0 0.0 0.0 0.000133520789492 -0.00010514927785 -2.10361568962e-05
190 1 5.435427875 5.000404462 13.72509559 0.0 0.0 0.0 -7.26186594821e-05 -0.000245964640435 1.25428882105e-05
191 1 16.590641861 11.440869776 13.72509559 0.0 0.0 0.0 -4.27385986369e-05 -1.34815944342e-05 -2.6382004516e-05
192 1 9.153832489 11.440869776 13.72509559 0.0 0.0 0.0 0.00100228410202 0.00103905003564 -0.00358291830539
193 2 1.307441393 2.264553585 6.469759523 0.0 0.0 0.0 -0.00014656971808 -8.73803769466e-05 9.45319250331e-05
194 2 8.744250764 2.264553585 6.469759523 0.0 0.0 0.0 0.000114559232883 4.73264979098e-05 -1.20425328063e-05
195 2 5.025846007 8.705018899 6.469759523 0.0 0.0 0.0 0.000117410444506 0.000149901820603 -0.000104928031524
196 2 12.462655379 8.705018899 6.469759523 0.0 0.0 0.0 -9.29945374163e-05 6.33937207698e-05 -0.000119366508302
197 2 1.307441436 2.264553578 13.406609663 0.0 0.0 0.0 -0.00118643838979 -5.94083933092e-05 -0.00137094584638
198 2 8.744250808 2.264553578 13.406609663 0.0 0.0 0.0 0.000246937147541 6.26666082591e-05 -0.000118542139542
199 2 5.02584605 8.705018892 13.406609663 0.0 0.0 0.0 0.000265346653346 0.000289698962387 2.94884341552e-05
200 2 12.462655422 8.705018892 13.406609663 0.0 0.0 0.0 -0.00030266577849 0.000174661275663 9.09639784425e-05
201 1 1.717022388 1.440060952 6.788246651 0.0 0.0 0.0 0.000120136823857 0.00015563324332 -8.66733795641e-05
202 1 9.15383176 1.440060952 6.788246651 0.0 0.0 0.0 5.71776169453e-06 6.65847722783e-05 -4.19029623023e-05
203 1 5.435427002 7.880526266 6.788246651 0.0 0.0 0.0 4.07391553089e-06 -1.48430528827e-05 -1.70263954479e-05
204 1 12.872236374 7.880526266 6.788246651 0.0 0.0 0.0 8.73122419327e-05 3.02466753824e-05 -2.14980010083e-05
205 1 1.717022431 1.440060945 13.725096791 0.0 0.0 0.0 0.00086690020533 0.00104381218369 0.0020835764678
206 1 9.153831803 1.440060945 13.725096791 0.0 0.0 0.0 -5.88072985837e-05 7.95016080989e-05 -1.75082592618e-05
207 1 5.435427045 7.880526258 13.725096791 0.0 0.0 0.0 -7.04787592299e-05 -0.000120034060621 -6.03980218276e-05
208 1 12.872236417 7.880526258 13.725096791 0.0 0.0 0.0 0.000148984428328 -1.54641839478e-05 -5.13431792138e-05
209 1 15.262237079 2.207018097 6.788243067 0.0 0.0 0.0 6.99818029262e-05 0.000116203665985 -3.65717858101e-05
210 1 7.825427708 2.207018097 6.788243067 0.0 0.0 0.0 -4.07172576521e-05 5.44363747042e-05 -5.25584095297e-05
211 1 18.980641693 8.647483411 6.788243067 0.0 0.0 0.0 -2.58348150171e-05 1.91196110885e-05 -8.75102678838e-06
212 1 11.543832322 8.647483411 6.788243067 0.0 0.0 0.0 6.27517221198e-05 4.23372799716e-05 3.23375399916e-05
213 1 15.262237122 2.207018089 13.725093207 0.0 0.0 0.0 0.000498949014115 0.000272474146622 9.49051592554e-05
214 1 7.825427751 2.207018089 13.725093207 0.0 0.0 0.0 -0.000176589197571 2.70157903433e-05 5.35319874465e-05
215 1 18.980641736 8.647483403 13.725093207 0.0 0.0 0.0 -8.12976147817e-05 -3.26146151953e-05 -2.89437816161e-05
216 1 11.543832365 8.647483403 13.725093207 0.0 0.0 0.0 0.000236119503822 -0.000126485645077 -0.000165413231407
217 2 10.05169036 12.880930562 3.001331049 0.0 0.0 0.0 -0.00549707693994 -0.0096691032847 0.00083313062732
218 2 17.488499731 12.880930562 3.001331049 0.0 0.0 0.0 0.000265015009584 -8.24278765394e-05 -4.57088225752e-05
219 2 6.333285745 6.440465248 3.001331049 0.0 0.0 0.0 0.00026477531452 0.00037470351193 -4.61175448217e-05
220 2 13.770095117 6.440465248 3.001331049 0.0 0.0 0.0 -0.000130688023628 0.000146337360949 -3.96399839104e-05
221 2 10.051690403 12.880930555 9.938181189 0.0 0.0 0.0 -6.23897126408e-05 -0.000192396101469 -5.28210686077e-05
222 2 17.488499774 12.880930555 9.938181189 0.0 0.0 0.0 0.000126529210624 -3.56412589097e-05 -4.11509060179e-05
223 2 6.333285789 6.440465241 9.938181189 0.0 0.0 0.0 0.000126447748846 0.00013506108596 -4.08915738122e-05
224 2 13.77009516 6.440465241 9.938181189 0.0 0.0 0.0 -2.12036603438e-05 4.97879119305e-05 -4.49895078746e-05
225 1 13.26085702 5.67351034 3.319819519 0.0 0.0 0.0 0.00014659424863 -7.68852319467e-05 -3.6543869376e-05
226 1 5.824047648 5.67351034 3.319819519 0.0 0.0 0.0 -5.20959073265e-05 -0.000206213545466 -6.98291318512e-05
227 1 16.979261634 12.113975653 3.319819519 0.0 0.0 0.0 -3.23826703557e-05 1.99403489775e-05 -3.03350286521e-05
228 1 9.542452262 12.113975653 3.319819519 0.0 0.0 0.0 0.00037312326489 -0.000100855593987 0.00458045212386
229 1 13.260857063 5.673510332 10.256669659 0.0 0.0 0.0 9.76266880271e-05 -4.00473401107e-05 -2.48231128585e-05
230 1 5.824047691 5.673510332 10.256669659 0.0 0.0 0.0 2.00424177036e-05 -8.64323345236e-05 -6.55613274383e-06
231 1 16.979261677 12.113975646 10.256669659 0.0 0.0 0.0 2.26551071138e-05 2.9671605218e-08 -2.86985209984e-05
232 1 9.542452305 12.113975646 10.256669659 0.0 0.0 0.0 0.000121653176614 8.12144202872e-05 -8.08712853516e-05
233 1 2.105642892 0.766955018 3.319818703 0.0 0.0 0.0 0.0014627327628 0.000527933300871 -0.00273851072448
234 1 9.542452263 0.766955018 3.319818703 0.0 0.0 0.0 -4.37793503656e-05 4.82875857427e-05 -3.75992289349e-05
235 1 5.824047506 7.207420332 3.319818703 0.0 0.0 0.0 -5.11352263609e-05 -0.000155593519867 -1.31835848552e-07
236 1 13.260856878 7.207420332 3.319818703 0.0 0.0 0.0 0.000157673271979 -4.98813502039e-05 -6.07875579066e-06
237 1 2.105642935 0.766955011 10.256668843 0.0 0.0 0.0 0.000123096392846 0.000116743981192 1.39960184779e-05
238 1 9.542452307 0.766955011 10.256668843 0.0 0.0 0.0 1.89404586371e-05 3.30614158012e-05 -1.71076216376e-05
239 1 5.824047549 7.207420325 10.256668843 0.0 0.0 0.0 1.76439401631e-05 -5.08055592468e-05 -3.89533607553e-05
240 1 13.260856921 7.207420325 10.256668843 0.0 0.0 0.0 9.94752746331e-05 -5.17639549516e-06 -3.48303462567e-05
241 2 13.566178647 2.264553318 3.001331607 0.0 0.0 0.0 -0.000263809070886 -0.000341225590094 -3.92354909049e-05
242 2 6.129369276 2.264553318 3.001331607 0.0 0.0 0.0 0.000753623610855 0.000246138684826 0.000327565516553
243 2 17.284583261 8.705018632 3.001331607 0.0 0.0 0.0 6.27503271192e-05 0.000179589433663 -4.71155502662e-05
244 2 9.84777389 8.705018632 3.001331607 0.0 0.0 0.0 -0.000262285139522 0.000837084241826 -0.000447472792939
245 2 13.56617869 2.26455331 9.938181747 0.0 0.0 0.0 -7.40792471387e-05 -4.19085303874e-05 -4.91242410989e-05
246 2 6.129369319 2.26455331 9.938181747 0.0 0.0 0.0 5.32179185617e-05 3.16098984585e-05 -0.000142900361737
247 2 17.284583305 8.705018624 9.938181747 0.0 0.0 0.0 1.41283349655e-05 0.000100596817951 -4.61361265377e-05
248 2 9.847773933 8.705018624 9.938181747 0.0 0.0 0.0 -7.40365247567e-05 9.62777413928e-05 5.26750457396e-05
249 1 14.485000752 2.20701716 3.319818255 0.0 0.0 0.0 0.000331868963699 0.000284778675171 -0.000121783309066
250 1 7.048191381 2.20701716 3.319818255 0.0 0.0 0.0 -0.00020333696743 3.28413762296e-05 -9.32238264995e-05
251 1 18.203405367 8.647482473 3.319818255 0.0 0.0 0.0 -0.00010215328013 -2.78348967084e-05 -1.44420349676e-05
252 1 10.766595995 8.647482473 3.319818255 0.0 0.0 0.0 0.00021360441882 -0.000157766610058 0.000139349432137
253 1 14.485000796 2.207017152 10.256668395 0.0 0.0 0.0 3.66599856136e-05 0.000115427016948 -7.02942295656e-06
254 1 7.048191424 2.207017152 10.256668395 0.0 0.0 0.0 -6.78006785469e-05 5.64297990039e-05 1.23141080822e-05
255 1 18.20340541 8.647482466 10.256668395 0.0 0.0 0.0 -5.21351797987e-05 2.12286681949e-05 -3.29790156761e-05
256 1 10.766596038 8.647482466 10.256668395 0.0 0.0 0.0 3.19663618644e-05 4.45248492058e-05 -7.57536758439e-05
257 1 5.719786092 1.440061854 3.319818129 0.0 0.0 0.0 -0.000580941479815 8.16362597227e-05 -0.000430470020824
258 1 13.156595464 1.440061854 3.319818129 0.0 0.0 0.0 -0.000107548118221 0.00025413502121 3.71743339981e-05
259 1 9.438190706 7.880527168 3.319818129 0.0 0.0 0.0 -5.57888919873e-05 -0.000199123793027 7.19093551037e-05
260 1 16.875000078 7.880527168 3.319818129 0.0 0.0 0.0 -4.17801860071e-05 -4.46195665915e-05 -3.54531105246e-05
261 1 5.719786135 1.440061847 10.256668269 0.0 0.0 0.0 -6.8218904357e-05 8.52063212885e-05 4.86963207716e-05
262 1 13.156595507 1.440061847 10.256668269 0.0 0.0 0.0 -4.36684670962e-05 9.68457781232e-05 -4.047679759e-05
263 1 9.438190749 7.880527161 10.256668269 0.0 0.0 0.0 -4.05891984338e-05 -1.37915995496e-05 -7.05709216312e-05
264 1 16.875000121 7.880527161 10.256668269 0.0 0.0 0.0 -4.54710563177e-05 5.13734384969e-06 -1.49351435924e-05
265 2 2.410964342 4.175911908 3.001332195 0.0 0.0 0.0 -0.000201546698352 0.000783559745043 0.000363056606006
266 2 9.847773713 4.175911908 3.001332195 0.0 0.0 0.0 4.81160988385e-05 8.8310266042e-05 -4.80302026501e-05
267 2 6.129368956 10.616377222 3.001332195 0.0 0.0 0.0 0.00082601662379 0.00019988921977 -0.000492629776334
268 2 13.566178327 10.616377222 3.001332195 0.0 0.0 0.0 -0.000202748589017 -0.000393699944635 -4.02485591608e-05
269 2 2.410964385 4.175911901 9.938182334 0.0 0.0 0.0 -6.15518220548e-05 1.99418306805e-05 -0.000150909306169
270 2 9.847773757 4.175911901 9.938182334 0.0 0.0 0.0 8.69222986447e-06 1.41041024503e-05 -4.69667705921e-05
271 2 6.129368999 10.616377215 9.938182334 0.0 0.0 0.0 5.0178236845e-05 -5.47655552234e-05 5.95429232864e-05
272 2 13.566178371 10.616377215 9.938182334 0.0 0.0 0.0 -6.16751726367e-05 -0.000119280015749 -5.00097024535e-05