ITEM: TIMESTEP
0
ITEM: NUMBER OF ATOMS
288
ITEM: BOX BOUNDS xy xz yz xx yy zz
0.0 14.873618743 7.436809228
0.0 12.880930628 8.6e-08
0.0 13.87370028 -1.5e-08
ITEM: ATOMS id type x y z vx vy vz fx fy fz
1 2 2.338671397 1.12e-07 0.380392751 0.0 0.0 0.0 -3.59188180168e-05 -0.000273930822336 0.000111128828464
2 2 9.775480768 1.12e-07 0.380392751 0.0 0.0 0.0 0.000128338162774 -0.00012821542317 -3.96240852772e-05
3 2 6.057076011 6.440465426 0.380392751 0.0 0.0 0.0 9.46731167448e-05 0.00021855828496 -2.5422800479e-05
4 2 13.493885382 6.440465426 0.380392751 0.0 0.0 0.0 -4.3472904808e-05 0.000138650056478 5.18045712651e-05
5 2 2.33867144 1.04e-07 7.317242891 0.0 0.0 0.0 0.0314928341298 -0.00794911641085 -0.0122850387636
6 2 9.775480812 1.04e-07 7.317242891 0.0 0.0 0.0 0.000835630269859 -0.000518626482543 0.000184083691412
7 2 6.057076054 6.440465418 7.317242891 0.0 0.0 0.0 0.000227683984709 0.000788707656505 9.45903340246e-05
8 2 13.493885426 6.440465418 7.317242891 0.0 0.0 0.0 -0.000208461328215 0.000535171126741 -5.15536405113e-05
9 1 2.400632363 4.61e-07 1.351465958 0.0 0.0 0.0 6.68999163422e-05 0.000197366656625 -0.000101464861955
10 1 9.837441735 4.61e-07 1.351465958 0.0 0.0 0.0 -3.04080234703e-05 8.51183970671e-05 0.000111143572781
11 1 6.119036977 6.440465774 1.351465958 0.0 0.0 0.0 3.8537975889e-06 -0.000140881485079 8.83627255077e-05
12 1 13.555846349 6.440465774 1.351465958 0.0 0.0 0.0 8.41891762073e-05 -9.43636586488e-05 -6.68842156525e-06
13 1 2.400632406 4.53e-07 8.288316098 0.0 0.0 0.0 -0.000326740926924 0.00097324345583 0.00109584332774
14 1 9.837441778 4.53e-07 8.288316098 0.0 0.0 0.0 -0.000263934376611 0.000224556365794 -0.000129800936469
15 1 6.11903702 6.440465767 8.288316098 0.0 0.0 0.0 -3.52664306013e-05 -0.000329608473269 -4.1699642431e-05
16 1 13.555846392 6.440465767 8.288316098 0.0 0.0 0.0 0.000135914834072 -0.000230104423278 0.000109897896209
17 1 10.701141082 12.880930558 0.072968506 0.0 0.0 0.0 0.000135534984456 0.000152189490466 4.43293569234e-05
18 1 18.137950453 12.880930558 0.072968506 0.0 0.0 0.0 -9.19965021003e-07 4.04415020278e-05 5.84145016246e-05
19 1 6.982736468 6.440465244 0.072968506 0.0 0.0 0.0 4.32806352823e-06 -0.000113085478466 5.94534031292e-05
20 1 14.419545839 6.440465244 0.072968506 0.0 0.0 0.0 0.000116515382485 -4.82758608562e-05 5.28471252172e-05
21 1 10.701141125 12.880930551 7.009818646 0.0 0.0 0.0 -0.00985741445635 0.00930165594479 0.00401919570677
22 1 18.137950497 12.880930551 7.009818646 0.0 0.0 0.0 -0.000214152739133 0.000123850761422 5.43737743957e-05
23 1 6.982736511 6.440465237 7.009818646 0.0 0.0 0.0 -0.000134550807752 -0.000418023702511 4.66643174467e-05
24 1 14.419545882 6.440465237 7.009818646 0.0 0.0 0.0 0.000241632073636 -0.000200274572155 6.00794539013e-05
25 2 13.704282012 2.025348059 0.380394512 0.0 0.0 0.0 5.2932313326e-05 -1.74362408997e-05 1.14946872166e-05
26 2 6.26747264 2.025348059 0.380394512 0.0 0.0 0.0 -8.07578640064e-05 -8.67517952152e-05 -0.000183705551199
27 2 17.422686626 8.465813373 0.380394512 0.0 0.0 0.0 -8.7366953305e-05 6.33458343794e-05 1.15321715564e-05
28 2 9.985877254 8.465813373 0.380394512 0.0 0.0 0.0 8.64155595969e-05 0.000202220170299 0.000116534628611
29 2 13.704282055 2.025348052 7.317244652 0.0 0.0 0.0 0.000188012099053 -0.000131437345748 -1.7077386183e-07
30 2 6.267472684 2.025348052 7.317244652 0.0 0.0 0.0 0.0363812483861 0.0517788649026 0.024845736924
31 2 17.422686669 8.465813365 7.317244652 0.0 0.0 0.0 -0.000254661076639 0.00012327224501 -3.25575594262e-07
32 2 9.985877298 8.465813365 7.317244652 0.0 0.0 0.0 0.000788915578236 0.00141540141296 -0.000320874952702
33 1 13.673300338 2.079010187 1.351467718 0.0 0.0 0.0 -5.65071458687e-05 6.09231339469e-05 2.5913392356e-05
34 1 6.236490966 2.079010187 1.351467718 0.0 0.0 0.0 1.80896509071e-05 9.47256144878e-05 0.000312266592783
35 1 17.391704952 8.519475501 1.351467718 0.0 0.0 0.0 3.14889782081e-05 3.16772893582e-06 2.79542281965e-05
36 1 9.95489558 8.519475501 1.351467718 0.0 0.0 0.0 -8.67813329536e-05 -0.000103446984203 -0.000103799859592
37 1 13.673300381 2.07901018 8.288317858 0.0 0.0 0.0 -0.000103945199958 0.000103972066593 4.32794910205e-05
38 1 6.236491009 2.07901018 8.288317858 0.0 0.0 0.0 -0.000519686996462 -0.00059290864262 -0.00245292420388
39 1 17.391704995 8.519475493 8.288317858 0.0 0.0 0.0 8.48781014183e-05 -2.11671631851e-05 3.97720922096e-05
40 1 9.954895623 8.519475493 8.288317858 0.0 0.0 0.0 -0.000287887115939 -0.000473890890552 0.00033034432228
41 1 13.241451457 2.826992613 0.072968839 0.0 0.0 0.0 -6.07992578815e-05 5.01392240853e-05 5.67366481878e-05
42 1 5.804642085 2.826992613 0.072968839 0.0 0.0 0.0 6.58373394968e-06 6.30310920977e-05 8.40399520453e-05
43 1 16.959856071 9.267457927 0.072968839 0.0 0.0 0.0 6.59048190807e-06 7.78796237573e-05 5.27361794046e-05
44 1 9.523046699 9.267457927 0.072968839 0.0 0.0 0.0 -8.5259870975e-05 1.73783924178e-05 3.08737975379e-05
45 1 13.2414515 2.826992606 7.009818978 0.0 0.0 0.0 -0.000113047947732 4.29916562221e-05 5.13739455381e-05
46 1 5.804642128 2.826992606 7.009818978 0.0 0.0 0.0 6.21143461545e-06 -0.00309755504774 -8.22916714456e-05
47 1 16.959856114 9.26745792 7.009818978 0.0 0.0 0.0 0.000143831134753 0.00012432966802 6.04325195518e-05
48 1 9.523046743 9.26745792 7.009818978 0.0 0.0 0.0 -0.000799443324205 -0.000722612202032 0.000165102938831
49 2 17.422687622 4.415117298 0.380394729 0.0 0.0 0.0 -0.0001755662091 -5.76694168797e-06 -4.55355041429e-05
50 2 9.985878251 4.415117298 0.380394729 0.0 0.0 0.0 0.000141273157269 0.000138596655685 -3.1636075895e-05
51 2 21.141092236 10.855582612 0.380394729 0.0 0.0 0.0 0.0001411030308 -2.24316741464e-05 4.53606587603e-05
52 2 13.704282865 10.855582612 0.380394729 0.0 0.0 0.0 -0.000220045446008 -0.000222708217968 0.000105039648797
53 2 17.422687665 4.415117291 7.317244869 0.0 0.0 0.0 -0.000861366196903 0.000406979125748 0.000175646906815
54 2 9.985878294 4.415117291 7.317244869 0.0 0.0 0.0 0.000568706192051 0.000540833561935 8.83370699084e-05
55 2 21.14109228 10.855582605 7.317244869 0.0 0.0 0.0 0.000564996842154 3.10231841059e-05 -5.7346232918e-05
56 2 13.704282908 10.855582605 7.317244869 0.0 0.0 0.0 -0.0218080826028 0.0173271848164 -0.0104312061078
57 1 2.518088606 4.36145465 1.351467896 0.0 0.0 0.0 8.81575738471e-05 -5.33796039351e-05 0.000102667394382
58 1 9.954897977 4.36145465 1.351467896 0.0 0.0 0.0 -0.000119482338646 -0.000134882644037 7.82953142979e-05
59 1 6.23649322 10.801919964 1.351467896 0.0 0.0 0.0 -0.000122098706566 -2.83510592705e-05 -1.25054321629e-05
60 1 13.673302591 10.801919964 1.351467896 0.0 0.0 0.0 0.000141792972606 0.000114331708893 -0.000100452607991
61 1 2.518088649 4.361454643 8.288318036 0.0 0.0 0.0 0.000297628677342 -0.000187134868148 -0.000120625956412
62 1 9.95489802 4.361454643 8.288318036 0.0 0.0 0.0 -0.000252525223649 -0.000266577312705 -3.90369167337e-05
63 1 6.236493263 10.801919957 8.288318036 0.0 0.0 0.0 -0.000269244618812 -4.31660733556e-05 0.000105356896412
64 1 13.673302635 10.801919957 8.288318036 0.0 0.0 0.0 0.00118561572193 0.000333839485702 0.00119655191688
65 1 16.959856167 3.613473172 0.07296928 0.0 0.0 0.0 4.41452862685e-05 -3.06576500799e-05 6.12753120647e-05
66 1 9.523046796 3.613473172 0.07296928 0.0 0.0 0.0 -0.000106391297213 -0.000110131851101 7.22541244175e-05
67 1 20.678260782 10.053938486 0.07296928 0.0 0.0 0.0 -8.93616457129e-05 -8.96184956283e-05 5.30763670664e-05
68 1 13.24145141 10.053938486 0.07296928 0.0 0.0 0.0 5.11682439753e-05 -3.45904506013e-05 2.71900399189e-05
69 1 16.959856211 3.613473164 7.00981942 0.0 0.0 0.0 0.000529061455881 -7.75822138024e-05 2.14778268769e-05
70 1 9.523046839 3.613473164 7.00981942 0.0 0.0 0.0 -0.000511756042334 -0.000375944077059 1.032900671e-05
71 1 20.678260825 10.053938478 7.00981942 0.0 0.0 0.0 -0.000230272438161 -0.000148148002596 5.68489665085e-05
72 1 13.241451453 10.053938478 7.00981942 0.0 0.0 0.0 0.00136853391331 -0.00241425757758 0.000337795578834
73 2 5.098138192 9.1e-08 3.848820961 0.0 0.0 0.0 -0.00427426228781 -0.00791822180446 -0.00307258882134
74 2 12.534947564 9.1e-08 3.848820961 0.0 0.0 0.0 0.000309287590881 -0.000138751155129 6.34015295176e-06
75 2 8.816542806 6.440465404 3.848820961 0.0 0.0 0.0 0.000309326293641 0.000587828336336 5.83174449005e-06
76 2 16.253352178 6.440465404 3.848820961 0.0 0.0 0.0 -0.000319920276102 0.000224530088458 6.76148934409e-06
77 2 5.098138235 8.3e-08 10.785671101 0.0 0.0 0.0 -0.000563769855353 -0.000924199338015 1.88464445326e-06
78 2 12.534947607 8.3e-08 10.785671101 0.0 0.0 0.0 0.000186017566794 -9.68885893748e-05 7.47697120163e-06
79 2 8.816542849 6.440465397 10.785671101 0.0 0.0 0.0 0.000186057515359 0.000374312890399 7.9782217906e-06
80 2 16.253352221 6.440465397 10.785671101 0.0 0.0 0.0 -0.00022204485314 0.000138699445395 6.99772067736e-06
81 1 12.472986142 12.880930033 4.819894401 0.0 0.0 0.0 0.00551611792313 0.00967915519986 0.000728738147964
82 1 19.909795513 12.880930033 4.819894401 0.0 0.0 0.0 -0.00025757363915 8.55422241538e-05 2.61849028494e-05
83 1 8.754581528 6.440464719 4.819894401 0.0 0.0 0.0 -0.000257310660223 -0.000371507164144 2.63911581975e-05
84 1 16.191390899 6.440464719 4.819894401 0.0 0.0 0.0 0.000138208419343 -0.00014318689106 3.22718128792e-05
85 1 12.472986185 12.880930026 11.756744541 0.0 0.0 0.0 6.98654101604e-05 0.000195550090242 2.02026963084e-05
86 1 19.909795557 12.880930026 11.756744541 0.0 0.0 0.0 -0.000119079693404 3.87557708324e-05 3.0515275343e-05
87 1 8.754581571 6.440464712 11.756744541 0.0 0.0 0.0 -0.000119032854581 -0.000131940739929 3.04022140654e-05
88 1 16.191390943 6.440464712 11.756744541 0.0 0.0 0.0 2.86816866799e-05 -4.66629613018e-05 2.66779901078e-05
89 1 4.172478132 1.2e-08 3.541396305 0.0 0.0 0.0 0.000261380360169 0.000926150528237 -0.000723799224249
90 1 11.609287504 1.2e-08 3.541396305 0.0 0.0 0.0 -0.000220549511933 7.32521162871e-05 9.76155844189e-05
91 1 7.890882746 6.440465326 3.541396305 0.0 0.0 0.0 -0.000201740087828 -0.000257201918822 9.54323732032e-05
92 1 15.327692118 6.440465326 3.541396305 0.0 0.0 0.0 5.45008284336e-05 -0.000109062077112 1.99426320142e-05
93 1 4.172478175 5e-09 10.478246445 0.0 0.0 0.0 0.000241446831302 0.000637307605929 0.000339816012421
94 1 11.609287547 5e-09 10.478246445 0.0 0.0 0.0 -0.000193670179313 6.24530796922e-05 1.52572980634e-05
95 1 7.890882789 6.440465319 10.478246445 0.0 0.0 0.0 -0.000182139879888 -0.000217230582449 1.67945530486e-05
96 1 15.327692161 6.440465319 10.478246445 0.0 0.0 0.0 3.75774547575e-05 -9.02549013641e-05 8.28121756147e-05
97 2 12.324550744 4.415115375 3.848820709 0.0 0.0 0.0 0.00014183826088 0.000198129400278 9.98401285039e-06
98 2 4.887741372 4.415115375 3.848820709 0.0 0.0 0.0 -0.000278167927022 0.000847725135879 -0.000767756269513
99 2 16.042955358 10.855580689 3.848820709 0.0 0.0 0.0 -0.000278262976319 -0.000523341389676 1.15784604236e-05
100 2 8.606145986 10.855580689 3.848820709 0.0 0.0 0.0 0.000908267032142 0.000161756691034 0.000781586274123
101 2 12.324550787 4.415115367 10.785670849 0.0 0.0 0.0 0.000101775153096 0.000129165186077 1.09357235362e-05
102 2 4.887741415 4.415115367 10.785670849 0.0 0.0 0.0 -0.00013656148698 0.000263760110579 0.000448752104323
103 2 16.042955401 10.855580681 10.785670849 0.0 0.0 0.0 -0.000136573176408 -0.00028114093066 1.00964936897e-05
104 2 8.606146029 10.855580681 10.785670849 0.0 0.0 0.0 0.000336653631636 -7.90858712309e-06 -0.000425391838869
105 1 12.355530592 4.361455296 4.81989398 0.0 0.0 0.0 -5.51578943697e-05 -0.000176778849242 3.32399609577e-05
106 1 4.91872122 4.361455296 4.81989398 0.0 0.0 0.0 0.000236048935478 -0.000810982267032 0.000410235723827
107 1 16.073935206 10.801920609 4.81989398 0.0 0.0 0.0 0.000236305447358 0.0003643979043 3.97153647965e-05
108 1 8.637125834 10.801920609 4.81989398 0.0 0.0 0.0 -0.000783080182383 -0.00022589098301 -0.000364689728002
109 1 12.355530635 4.361455288 11.75674412 0.0 0.0 0.0 -1.06719422071e-05 -9.53927964377e-05 3.37680798309e-05
110 1 4.918721263 4.361455288 11.75674412 0.0 0.0 0.0 6.93559466449e-05 -9.44320585954e-05 -6.31318652527e-05
111 1 16.073935249 10.801920602 11.75674412 0.0 0.0 0.0 6.9374347445e-05 5.18850748433e-05 3.12602819881e-05
112 1 8.637125877 10.801920602 11.75674412 0.0 0.0 0.0 -5.09418934363e-05 -1.76937049588e-05 0.000132456857518
113 1 12.787381758 3.613470486 3.541396271 0.0 0.0 0.0 -2.84333165423e-05 -8.48668930184e-05 6.26733728768e-05
114 1 5.350572387 3.613470486 3.541396271 0.0 0.0 0.0 0.000124242322594 -0.000430769884135 0.000686862083317
115 1 16.505786372 10.0539358 3.541396271 0.0 0.0 0.0 0.000133915422809 -7.59192724114e-07 2.60013096988e-05
116 1 9.068977001 10.0539358 3.541396271 0.0 0.0 0.0 -0.000262158908283 -0.000276775939762 -0.00031174798185
117 1 12.787381802 3.613470479 10.478246411 0.0 0.0 0.0 -2.11065275047e-05 -8.58779437766e-05 4.72117307054e-05
118 1 5.35057243 3.613470479 10.478246411 0.0 0.0 0.0 0.000112175057461 -0.000245174586996 -0.000381917470775
119 1 16.505786416 10.053935793 10.478246411 0.0 0.0 0.0 0.000115278896839 7.04265746765e-06 7.70336175306e-05
120 1 9.068977044 10.053935793 10.478246411 0.0 0.0 0.0 -0.000179990365754 -0.000187211087414 0.000351719569897
121 2 16.042954883 2.025349614 3.848821218 0.0 0.0 0.0 -0.000269465291498 -0.000473620903047 1.18418829207e-05
122 2 8.606145512 2.025349614 3.848821218 0.0 0.0 0.0 0.000915818377817 0.000210588109393 -0.000772931583364
123 2 19.761359497 8.465814928 3.848821218 0.0 0.0 0.0 0.000140448691672 0.000245648875678 9.65459164848e-06
124 2 12.324550126 8.465814928 3.848821218 0.0 0.0 0.0 -0.000269458452731 0.000898234240679 0.000786845045898
125 2 16.042954927 2.025349607 10.785671358 0.0 0.0 0.0 -0.000132426143628 -0.000232564533388 9.62747727307e-06
126 2 8.606145555 2.025349607 10.785671358 0.0 0.0 0.0 0.000337529058469 3.87557767967e-05 0.000450900743604
127 2 19.761359541 8.46581492 10.785671358 0.0 0.0 0.0 0.000101276195278 0.000176887094048 1.10442156914e-05
128 2 12.324550169 8.46581492 10.785671358 0.0 0.0 0.0 -0.000132385652477 0.000313706053985 -0.000427213956136
129 1 16.07393341 2.079010738 4.819894452 0.0 0.0 0.0 0.000208858985658 0.000410890568378 2.21943853311e-05
130 1 8.637124038 2.079010738 4.819894452 0.0 0.0 0.0 -0.000818455020733 -0.000180307918967 0.00047344945801
131 1 19.792338024 8.519476052 4.819894452 0.0 0.0 0.0 -4.15288741014e-05 -0.000107799431497 3.65786578548e-05
132 1 12.355528653 8.519476052 4.819894452 0.0 0.0 0.0 0.00021024132921 -0.000761218200133 -0.000345677659316
133 1 16.073933453 2.079010731 11.756744592 0.0 0.0 0.0 6.85136152046e-05 0.000113205564219 3.7080098023e-05
134 1 8.637124082 2.079010731 11.756744592 0.0 0.0 0.0 -4.34227792074e-05 4.87024933835e-05 -7.21892199214e-05
135 1 19.792338067 8.519476045 11.756744592 0.0 0.0 0.0 -2.04923744055e-06 -2.90225172059e-05 3.15603922328e-05
136 1 12.355528696 8.519476045 11.756744592 0.0 0.0 0.0 6.86020740097e-05 -3.34322722284e-05 0.00013112664905
137 1 1.632167798 2.826994038 3.541396624 0.0 0.0 0.0 0.000265817290313 0.000140379718935 0.000152183536799
138 1 9.06897717 2.826994038 3.541396624 0.0 0.0 0.0 -0.000217128940312 -9.13676359118e-05 0.000240644469646
139 1 5.350572412 9.267459352 3.541396624 0.0 0.0 0.0 -8.82173703759e-05 -8.36200689269e-06 2.78276301393e-05
140 1 12.787381784 9.267459352 3.541396624 0.0 0.0 0.0 0.000327631465559 -0.000201905348244 -0.000484702515939
141 1 1.632167841 2.826994031 10.478246764 0.0 0.0 0.0 0.000195992246642 0.000142061667124 -1.68432214585e-05
142 1 9.068977213 2.826994031 10.478246764 0.0 0.0 0.0 -0.000181246560727 -5.21253522531e-05 -0.000126482468637
143 1 5.350572456 9.267459345 10.478246764 0.0 0.0 0.0 -6.80893966367e-05 -1.9562959821e-06 7.91364327538e-05
144 1 12.787381827 9.267459345 10.478246764 0.0 0.0 0.0 0.000223704343242 -6.96937800925e-05 0.000429978845201
145 2 12.263736453 12.889590567 6.469757221 0.0 0.0 0.0 -0.208389872763 -0.539752616598 -0.0973430299402
146 2 19.695545825 12.880930313 6.469757221 0.0 0.0 0.0 0.00042523664141 -0.000179390820212 -4.7116825676e-05
147 2 8.540331839 6.440464999 6.469757221 0.0 0.0 0.0 0.000425253584998 0.000813048415184 -4.71087448365e-05
148 2 15.97714121 6.440464999 6.469757221 0.0 0.0 0.0 -0.000434169906974 0.000316836122167 -4.70941951279e-05
149 2 12.258736496 12.880930306 13.40660736 0.0 0.0 0.0 -0.000232331344675 -0.00032585631642 -4.83316504667e-05
150 2 19.695545868 12.880930306 13.40660736 0.0 0.0 0.0 9.12207171143e-05 -6.70039813414e-05 -4.83313287429e-05
151 2 8.540331882 6.440464992 13.40660736 0.0 0.0 0.0 9.12126811512e-05 0.000234535143671 -4.83396241725e-05
152 2 15.977141254 6.440464992 13.40660736 0.0 0.0 0.0 -0.000169958937665 8.37536352718e-05 -4.83395408115e-05
153 1 5.331166141 0.766954845 6.788243965 0.0 0.0 0.0 0.231344781577 0.306406502111 0.139319945946
154 1 12.767975512 0.766954845 6.788243965 0.0 0.0 0.0 -0.000273035173942 0.000104996439445 -2.39287301596e-05
155 1 9.049570755 7.207420159 6.788243965 0.0 0.0 0.0 -0.000324686024873 -0.000430869724083 -1.11692986433e-05
156 1 16.486380127 7.207420159 6.788243965 0.0 0.0 0.0 0.000127613666603 -0.000119812113367 -2.29852900014e-05
157 1 5.331166184 0.766954838 13.725094105 0.0 0.0 0.0 2.25179875575e-05 0.000159680856425 -6.45460136607e-06
158 1 12.767975556 0.766954838 13.725094105 0.0 0.0 0.0 -0.000123502450046 4.77539138322e-05 -2.43413357846e-05
159 1 9.049570798 7.207420151 13.725094105 0.0 0.0 0.0 -0.000126932539231 -9.50557169325e-05 -3.05697783134e-05
160 1 16.48638017 7.207420151 13.725094105 0.0 0.0 0.0 -2.39910027107e-06 -1.98441904689e-05 -2.48222782079e-05
161 1 16.486380702 5.673510068 6.788243516 0.0 0.0 0.0 0.000165929492297 -0.00018212359897 -2.8996666071e-05
162 1 9.04957133 5.673510068 6.788243516 0.0 0.0 0.0 -0.000315789528452 -0.00040992187698 -2.95380054472e-05
163 1 20.204785316 12.113975382 6.788243516 0.0 0.0 0.0 -0.000306959868136 5.06684339631e-05 -1.78121018572e-05
164 1 12.767975944 12.113975382 6.788243516 0.0 0.0 0.0 -0.0610768120961 0.163243436753 -0.0453779356324
165 1 16.486380745 5.673510061 13.725093655 0.0 0.0 0.0 3.78208280478e-06 -5.37277208895e-05 -1.8359312388e-05
166 1 9.049571373 5.673510061 13.725093655 0.0 0.0 0.0 -0.0001310831394 -0.000128254503978 -1.7914787031e-05
167 1 20.204785359 12.113975375 13.725093655 0.0 0.0 0.0 -0.000130474496557 9.40470617861e-06 -2.39685780136e-05
168 1 12.767975987 12.113975375 13.725093655 0.0 0.0 0.0 3.3726651044e-05 0.000131684158115 -3.16022458514e-05
169 2 12.462655523 4.175912014 6.46975888 0.0 0.0 0.0 0.000185187456861 0.000248173179167 -5.32965879272e-05
170 2 5.025846151 4.175912014 6.46975888 0.0 0.0 0.0 -0.000484893146839 0.0021004367968 -5.32909906619e-05
171 2 16.181060137 10.616377328 6.46975888 0.0 0.0 0.0 -0.000484769437892 -0.000904870129612 -5.33034002321e-05
172 2 8.744250765 10.616377328 6.46975888 0.0 0.0 0.0 0.00211386684794 0.000595203189155 -5.33057555611e-05
173 2 12.462655566 4.175912007 13.406609019 0.0 0.0 0.0 7.77859835141e-05 6.30044019385e-05 -5.45201614708e-05
174 2 5.025846194 4.175912007 13.406609019 0.0 0.0 0.0 -6.14267862582e-05 4.80508709786e-05 -5.45194646765e-05
175 2 16.18106018 10.616377321 13.406609019 0.0 0.0 0.0 -6.14258324488e-05 -0.000177187578755 -5.4520711488e-05
176 2 8.744250808 10.616377321 13.406609019 0.0 0.0 0.0 0.000134403958497 -6.41243565501e-05 -5.45194005086e-05
177 1 4.107023344 4.233448053 6.788243333 0.0 0.0 0.0 0.000622380389776 -0.000804164924072 -0.000112944670414
178 1 11.543832716 4.233448053 6.788243333 0.0 0.0 0.0 -0.000171688901208 -0.000255387607034 -2.38427353466e-05
179 1 7.825427958 10.673913367 6.788243333 0.0 0.0 0.0 -0.000478702911458 -0.000141486369277 3.01438053949e-05
180 1 15.26223733 10.673913367 6.788243333 0.0 0.0 0.0 0.000971761976051 0.000514056854246 1.33064946455e-05
181 1 4.107023387 4.233448046 13.725093473 0.0 0.0 0.0 8.63330069443e-05 -8.21900198431e-05 -4.04194850489e-07
182 1 11.543832759 4.233448046 13.725093473 0.0 0.0 0.0 -4.41769218788e-05 -0.000126983964278 -1.80670806605e-05
183 1 7.825428001 10.67391336 13.725093473 0.0 0.0 0.0 -6.45642161701e-05 -6.60262718546e-05 -3.62516785933e-05
184 1 15.262237373 10.67391336 13.725093473 0.0 0.0 0.0 9.02965088898e-05 2.23039031194e-05 -2.40644079667e-05
185 1 12.872237203 5.00040447 6.78824545 0.0 0.0 0.0 6.04459932064e-05 -0.000246160933374 -2.59261329477e-05
186 1 5.435427832 5.00040447 6.78824545 0.0 0.0 0.0 -2.2992382308e-06 -0.000678348539236 -8.84089871518e-05
187 1 16.590641818 11.440869783 6.78824545 0.0 0.0 0.0 -0.000151205126981 0.000459867672075 -5.04345405674e-05
188 1 9.153832446 11.440869783 6.78824545 0.0 0.0 0.0 -0.0020380937338 -0.000184489001378 0.000190785602927
189 1 12.872237247 5.000404462 13.72509559 0.0 0.0 0.0 4.85655435356e-05 -0.000114648143246 -3.10186778251e-05
190 1 5.435427875 5.000404462 13.72509559 0.0 0.0 0.0 4.86823855534e-05 -0.000139136820024 -1.04904206181e-05
191 1 16.590641861 11.440869776 13.72509559 0.0 0.0 0.0 4.51649812604e-05 2.78097859134e-05 -2.41181480048e-05
192 1 9.153832489 11.440869776 13.72509559 0.0 0.0 0.0 2.26772340153e-05 2.00530599223e-05 -5.42961149053e-05
193 2 1.307441393 2.264553585 6.469759523 0.0 0.0 0.0 -0.000465680861333 -0.000814995791602 -5.33691345733e-05
194 2 8.744250764 2.264553585 6.469759523 0.0 0.0 0.0 0.00214222341985 0.000690751116719 -5.33766640102e-05
195 2 5.025846007 8.705018899 6.469759523 0.0 0.0 0.0 0.000178769947318 0.000330806963636 -5.33680689381e-05
196 2 12.462655379 8.705018899 6.469759523 0.0 0.0 0.0 -0.000465710051055 0.00218573255877 -5.33704439134e-05
197 2 1.307441436 2.264553578 13.406609663 0.0 0.0 0.0 -6.22050179794e-05 -9.30797304678e-05 -5.46034519369e-05
198 2 8.744250808 2.264553578 13.406609663 0.0 0.0 0.0 0.000131135386389 1.85511023985e-05 -5.4602645997e-05
199 2 5.02584605 8.705018892 13.406609663 0.0 0.0 0.0 7.44245832051e-05 0.000146511451033 -5.4592670358e-05
200 2 12.462655422 8.705018892 13.406609663 0.0 0.0 0.0 -6.21973152112e-05 0.000133016509847 -5.45911503329e-05
201 1 1.717022388 1.440060952 6.788246651 0.0 0.0 0.0 0.000191717962687 0.00121269034855 -3.70576317409e-06
202 1 9.15383176 1.440060952 6.788246651 0.0 0.0 0.0 -0.000806125258884 0.00018624309788 -0.000116291223301
203 1 5.435427002 7.880526266 6.788246651 0.0 0.0 0.0 -4.27261314018e-05 -0.000204077408593 -3.53897924557e-05
204 1 12.872236374 7.880526266 6.788246651 0.0 0.0 0.0 0.000264275716969 -0.000420294210755 1.9778286238e-05
205 1 1.717022431 1.440060945 13.725096791 0.0 0.0 0.0 8.8867120424e-05 0.000161061072174 -3.54429340898e-05
206 1 9.153831803 1.440060945 13.725096791 0.0 0.0 0.0 -1.07337289392e-05 9.82833985349e-05 -1.31383208453e-05
207 1 5.435427045 7.880526258 13.725096791 0.0 0.0 0.0 1.53489337068e-05 -3.13724737423e-05 -3.06182707682e-05
208 1 12.872236417 7.880526258 13.725096791 0.0 0.0 0.0 8.84449552169e-05 -1.36214276635e-05 -4.85879401917e-05
209 1 15.262237079 2.207018097 6.788243067 0.0 0.0 0.0 -1.16603329332e-05 0.00025113917092 -1.25475055551e-05
210 1 7.825427708 2.207018097 6.788243067 0.0 0.0 0.0 -0.00192918943469 -0.00103312572267 -0.000253215913104
211 1 18.980641693 8.647483411 6.788243067 0.0 0.0 0.0 1.92264869847e-05 -2.39357957736e-05 -1.78666632474e-05
212 1 11.543832322 8.647483411 6.788243067 0.0 0.0 0.0 -0.00020266561328 -0.00115457934226 9.88568427976e-05
213 1 15.262237122 2.207018089 13.725093207 0.0 0.0 0.0 1.65468411197e-05 0.000102969905097 -1.75778849015e-05
214 1 7.825427751 2.207018089 13.725093207 0.0 0.0 0.0 -1.44918136789e-05 8.40525991683e-05 1.26078732413e-05
215 1 18.980641736 8.647483403 13.725093207 0.0 0.0 0.0 1.15106483924e-05 2.68989322267e-05 -1.56301555956e-05
216 1 11.543832365 8.647483403 13.725093207 0.0 0.0 0.0 1.22735560229e-05 -3.2071396077e-06 -4.07491112778e-05
217 2 10.05169036 12.880930562 3.001331049 0.0 0.0 0.0 0.00012584871723 -0.000926316410228 0.000768567258716
218 2 17.488499731 12.880930562 3.001331049 0.0 0.0 0.0 0.000354653149176 -0.000271632801745 -0.000287595765833
219 2 6.333285745 6.440465248 3.001331049 0.0 0.0 0.0 0.000170372264587 0.000445475893493 -0.00019071630526
220 2 13.770095117 6.440465248 3.001331049 0.0 0.0 0.0 -9.02363329718e-05 0.00029436426785 8.98023451675e-05
221 2 10.051690403 12.880930555 9.938181189 0.0 0.0 0.0 0.000125786330392 -0.000926324095406 -0.000854050010859
222 2 17.488499774 12.880930555 9.938181189 0.0 0.0 0.0 0.00035460464801 -0.000271653163715 0.000202087470793
223 2 6.333285789 6.440465241 9.938181189 0.0 0.0 0.0 0.000170260155622 0.00044543890361 0.000105206252562
224 2 13.77009516 6.440465241 9.938181189 0.0 0.0 0.0 -9.03107853095e-05 0.000294330851461 -0.000175329529911
225 1 13.26085702 5.67351034 3.319819519 0.0 0.0 0.0 7.54614732375e-05 -0.000154123203473 -5.99061395744e-05
226 1 5.824047648 5.67351034 3.319819519 0.0 0.0 0.0 4.84322851443e-05 -0.000307826136259 0.000145446427856
227 1 16.979261634 12.113975653 3.319819519 0.0 0.0 0.0 -1.37533143625e-05 0.000206993325793 7.5241067334e-05
228 1 9.542452262 12.113975653 3.319819519 0.0 0.0 0.0 -0.000303397646105 0.000199009718344 -0.000648019352353
229 1 13.260857063 5.673510332 10.256669659 0.0 0.0 0.0 7.04846398097e-05 -0.000131537261066 -1.00222725955e-06
230 1 5.824047691 5.673510332 10.256669659 0.0 0.0 0.0 5.38229070829e-05 -0.000246917053557 -0.000185080635173
231 1 16.979261677 12.113975646 10.256669659 0.0 0.0 0.0 1.84338950523e-05 0.00016260512505 -0.000113029556945
232 1 9.542452305 12.113975646 10.256669659 0.0 0.0 0.0 -0.000152330104295 0.000130123225998 0.000406206488697
233 1 2.105642892 0.766955018 3.319818703 0.0 0.0 0.0 0.000149268976317 0.000497162571459 -0.00015214558192
234 1 9.542452263 0.766955018 3.319818703 0.0 0.0 0.0 -0.000211071049093 0.00012882145441 0.000207474708069
235 1 5.824047506 7.207420332 3.319818703 0.0 0.0 0.0 -7.87520768153e-07 -0.000163349483224 -3.10515674186e-06
236 1 13.260856878 7.207420332 3.319818703 0.0 0.0 0.0 0.000163404648232 -0.00020577627827 -0.000173727699979
237 1 2.105642935 0.766955011 10.256668843 0.0 0.0 0.0 0.000157435991296 0.000345333547061 3.4753020211e-05
238 1 9.542452307 0.766955011 10.256668843 0.0 0.0 0.0 -0.000137473888653 0.000108334160425 -0.000220786023715
239 1 5.824047549 7.207420325 10.256668843 0.0 0.0 0.0 7.79794695009e-06 -0.000132788950933 -4.36792800671e-05
240 1 13.260856921 7.207420325 10.256668843 0.0 0.0 0.0 0.000145239910646 -0.000158581788395 0.000108616906004
241 2 13.566178647 2.264553318 3.001331607 0.0 0.0 0.0 0.000100708786566 -5.12916351916e-05 -3.00225859568e-05
242 2 6.129369276 2.264553318 3.001331607 0.0 0.0 0.0 4.09598256821e-05 0.000151281113914 -0.00167029192056
243 2 17.284583261 8.705018632 3.001331607 0.0 0.0 0.0 -0.000164299640865 0.000101721671954 -3.00046487344e-05
244 2 9.84777389 8.705018632 3.001331607 0.0 0.0 0.0 0.000281989110189 0.000568745017954 0.000437491371177
245 2 13.56617869 2.26455331 9.938181747 0.0 0.0 0.0 0.000100797063553 -5.13153873705e-05 -6.28999921742e-05
246 2 6.129369319 2.26455331 9.938181747 0.0 0.0 0.0 4.10040169147e-05 0.000151259189714 0.00157736678191
247 2 17.284583305 8.705018624 9.938181747 0.0 0.0 0.0 -0.000164305139743 0.000101701089025 -6.29096723193e-05
248 2 9.847773933 8.705018624 9.938181747 0.0 0.0 0.0 0.000282032426476 0.00056873374788 -0.000530412595466
249 1 14.485000752 2.20701716 3.319818255 0.0 0.0 0.0 -2.06087161915e-05 0.000163472293978 -4.70389754032e-05
250 1 7.048191381 2.20701716 3.319818255 0.0 0.0 0.0 -0.00037382131763 -9.10888563844e-05 0.000688986441231
251 1 18.203405367 8.647482473 3.319818255 0.0 0.0 0.0 -5.13896767235e-06 7.26162504282e-06 -1.89591891655e-05
252 1 10.766595995 8.647482473 3.319818255 0.0 0.0 0.0 -9.71200480148e-05 -0.000299755200536 -0.000392578754527
253 1 14.485000796 2.207017152 10.256668395 0.0 0.0 0.0 -1.65788791832e-05 0.000146801592326 -6.70375783318e-06
254 1 7.048191424 2.207017152 10.256668395 0.0 0.0 0.0 -0.000229236782415 1.42708060681e-05 -0.000501552909239
255 1 18.20340541 8.647482466 10.256668395 0.0 0.0 0.0 -9.81821010421e-06 1.32811037409e-05 -3.24489188244e-05
256 1 10.766596038 8.647482466 10.256668395 0.0 0.0 0.0 -6.20532912671e-05 -0.000191623215559 0.000278736959381
257 1 5.719786092 1.440061854 3.319818129 0.0 0.0 0.0 0.000226132860972 0.000447483038929 0.0012623266145
258 1 13.156595464 1.440061854 3.319818129 0.0 0.0 0.0 -0.000172375945717 0.000103335441939 -3.06711129457e-05
259 1 9.438190706 7.880527168 3.319818129 0.0 0.0 0.0 -0.000208623980342 -0.00023103779396 -0.000127671217123
260 1 16.875000078 7.880527168 3.319818129 0.0 0.0 0.0 7.67059274839e-05 -3.20863755041e-05 -3.64173737889e-05
261 1 5.719786135 1.440061847 10.256668269 0.0 0.0 0.0 0.000200111023207 0.000429766998437 -0.00075463409189
262 1 13.156595507 1.440061847 10.256668269 0.0 0.0 0.0 -0.000154886942849 9.48116346885e-05 -1.69509452521e-05
263 1 9.438190749 7.880527161 10.256668269 0.0 0.0 0.0 -0.000174503240779 -0.000173406538655 6.34926138131e-05
264 1 16.875000121 7.880527161 10.256668269 0.0 0.0 0.0 5.95849155033e-05 -2.15065741912e-05 -1.16226826494e-05
265 2 2.410964342 4.175911908 3.001332195 0.0 0.0 0.0 -0.000407352134225 8.64113821704e-05 -0.000289038038654
266 2 9.847773713 4.175911908 3.001332195 0.0 0.0 0.0 0.000302724677226 0.000286643768547 -0.000194732441726
267 2 6.129368956 10.616377222 3.001332195 0.0 0.0 0.0 0.000302157817987 -1.81529496602e-05 8.45551563327e-05
268 2 13.566178327 10.616377222 3.001332195 0.0 0.0 0.0 -0.000865896022903 -0.000452696345524 0.000765824647398
269 2 2.410964385 4.175911901 9.938182334 0.0 0.0 0.0 -0.000407270868436 8.64714493397e-05 0.000194383167179
270 2 9.847773757 4.175911901 9.938182334 0.0 0.0 0.0 0.000302712452115 0.000286708560055 0.000100083715713
271 2 6.129368999 10.616377215 9.938182334 0.0 0.0 0.0 0.000302214865352 -1.81360189614e-05 -0.000179205679459
272 2 13.566178371 10.616377215 9.938182334 0.0 0.0 0.0 -0.000865894454581 -0.000452672214128 -0.000860480529118
273 1 16.875000507 5.000403535 3.319819181 0.0 0.0 0.0 0.000104621461037 -0.000140466285147 2.32677618541e-05