ITEM: TIMESTEP
0
ITEM: NUMBER OF ATOMS
288
ITEM: BOX BOUNDS xy xz yz xx yy zz
0.0 14.873618743 7.436809228
0.0 12.880930628 8.6e-08
0.0 13.87370028 -1.5e-08
ITEM: ATOMS id type x y z vx vy vz fx fy fz
1 2 2.338671397 1.12e-07 0.380392751 0.0 0.0 0.0 -0.0232322117403 3.43498274907e-07 -0.432781732003
2 2 9.775480768 1.12e-07 0.380392751 0.0 0.0 0.0 3.27464783625e-05 4.98168829761e-07 -0.000112484254743
3 2 6.057076011 6.440465426 0.380392751 0.0 0.0 0.0 2.91056077066e-05 2.58928889277e-06 -0.000112350828307
4 2 13.493885382 6.440465426 0.380392751 0.0 0.0 0.0 2.91195170042e-05 -1.59450341816e-06 -0.000112345618314
5 2 2.33867144 1.04e-07 7.317242891 0.0 0.0 0.0 3.54880619498e-05 5.01207743447e-07 0.000688476558863
6 2 9.775480812 1.04e-07 7.317242891 0.0 0.0 0.0 2.65499289958e-05 5.03793006926e-07 0.000129415162465
7 2 6.057076054 6.440465418 7.317242891 0.0 0.0 0.0 2.85254655647e-05 -6.40791404521e-07 0.000129331269283
8 2 13.493885426 6.440465418 7.317242891 0.0 0.0 0.0 2.84806487944e-05 1.6431348811e-06 0.000129344239357
9 1 2.400632363 4.61e-07 1.341465958 0.0 0.0 0.0 0.0237556052725 -1.68313745971e-06 0.420714677549
10 1 9.837441735 4.61e-07 1.351465958 0.0 0.0 0.0 4.29309690849e-05 -1.85065046849e-06 0.000120122397683
11 1 6.119036977 6.440465774 1.351465958 0.0 0.0 0.0 4.15413836401e-05 -1.04325486922e-06 0.000120177701827
12 1 13.555846349 6.440465774 1.351465958 0.0 0.0 0.0 4.15359362193e-05 -2.65275121963e-06 0.000120175438826
13 1 2.400632406 4.53e-07 8.288316098 0.0 0.0 0.0 4.39586149259e-05 -1.849763897e-06 -0.000230235720818
14 1 9.837441778 4.53e-07 8.288316098 0.0 0.0 0.0 4.05158664295e-05 -1.84975960374e-06 -2.63436058689e-05
15 1 6.11903702 6.440465767 8.288316098 0.0 0.0 0.0 4.12781436481e-05 -2.2892692118e-06 -2.63759012019e-05
16 1 13.555846392 6.440465767 8.288316098 0.0 0.0 0.0 4.12784289899e-05 -1.41083443191e-06 -2.63762701072e-05
17 1 10.701141082 12.880930558 0.072968506 0.0 0.0 0.0 -0.00102205759897 4.32835936243e-07 -0.00208409043755
18 1 18.137950453 12.880930558 0.072968506 0.0 0.0 0.0 1.85820137238e-05 4.34732035513e-07 0.000113583118898
19 1 6.982736468 6.440465244 0.072968506 0.0 0.0 0.0 5.72580010922e-05 -1.97690857304e-05 0.000106234434859
20 1 14.419545839 6.440465244 0.072968506 0.0 0.0 0.0 5.72555860072e-05 2.06388977806e-05 0.000106231667756
21 1 10.701141125 12.880930551 7.009818646 0.0 0.0 0.0 -1.2377922944e-05 4.32153750644e-07 -0.000310917332577
22 1 18.137950497 12.880930551 7.009818646 0.0 0.0 0.0 8.44982408769e-05 4.31842669684e-07 -1.08862252409e-06
23 1 6.982736511 6.440465237 7.009818646 0.0 0.0 0.0 6.32465618317e-05 1.21386154348e-05 4.88215341884e-06
24 1 14.419545882 6.440465237 7.009818646 0.0 0.0 0.0 6.32848074267e-05 -1.12755520238e-05 4.87159745874e-06
25 2 13.704282012 2.025348059 0.380394512 0.0 0.0 0.0 0.000384568954577 -0.000206890331539 -0.000419574068485
26 2 6.26747264 2.025348059 0.380394512 0.0 0.0 0.0 -0.0003688137934 -0.000172082327076 -0.000366255253767
27 2 17.422686626 8.465813373 0.380394512 0.0 0.0 0.0 -1.29894447276e-05 2.80685550792e-05 -9.06320666392e-05
28 2 9.985877254 8.465813373 0.380394512 0.0 0.0 0.0 -2.22289875284e-05 0.00046001737753 -0.00039087296754
29 2 13.704282055 2.025348052 7.317244652 0.0 0.0 0.0 -0.000103903271897 8.0938681399e-05 0.000260760452103
30 2 6.267472684 2.025348052 7.317244652 0.0 0.0 0.0 7.22945836867e-05 7.70966264232e-05 0.000244185902747
31 2 17.422686669 8.465813365 7.317244652 0.0 0.0 0.0 -1.51357136275e-05 2.82056845551e-05 0.000100570663378
32 2 9.985877298 8.465813365 7.317244652 0.0 0.0 0.0 -1.24738335735e-05 -7.33630085341e-05 0.000251904247725
33 1 13.673300338 2.079010187 1.351467718 0.0 0.0 0.0 -1.36369217408e-05 2.59343809926e-05 0.000402712606486
34 1 6.236490966 2.079010187 1.351467718 0.0 0.0 0.0 -1.10621881201e-05 2.92175827996e-05 0.000337867798628
35 1 17.391704952 8.519475501 1.351467718 0.0 0.0 0.0 -1.42347803977e-05 2.83675592844e-05 9.34944163217e-05
36 1 9.95489558 8.519475501 1.351467718 0.0 0.0 0.0 -1.51789268913e-05 3.43139935025e-05 0.000337846023578
37 1 13.673300381 2.07901018 8.288317858 0.0 0.0 0.0 -1.44255976805e-05 2.86016748238e-05 -0.000100513128399
38 1 6.236491009 2.07901018 8.288317858 0.0 0.0 0.0 -1.45631866538e-05 2.82297912765e-05 -8.91581969937e-05
39 1 17.391704995 8.519475493 8.288317858 0.0 0.0 0.0 -1.44384650828e-05 2.8029986044e-05 -2.17514685489e-05
40 1 9.954895623 8.519475493 8.288317858 0.0 0.0 0.0 -1.41727643634e-05 2.74982357572e-05 -8.91591422579e-05
41 1 13.241451457 2.826992613 0.072968839 0.0 0.0 0.0 -0.000123268766431 0.000133435943012 0.000120446743756
42 1 5.804642085 2.826992613 0.072968839 0.0 0.0 0.0 0.000139639254926 0.000218864101181 0.000157363949552
43 1 16.959856071 9.267457927 0.072968839 0.0 0.0 0.0 -2.44009392343e-05 5.24741711043e-05 9.60494304432e-05
44 1 9.523046699 9.267457927 0.072968839 0.0 0.0 0.0 -8.6135555774e-05 -0.000495736231933 0.000219295293491
45 1 13.2414515 2.826992606 7.009818978 0.0 0.0 0.0 1.42788630146e-05 2.71868170231e-05 -2.62117967807e-05
46 1 5.804642128 2.826992606 7.009818978 0.0 0.0 0.0 -8.48539440688e-05 1.14495666183e-05 -5.57680581324e-05
47 1 16.959856114 9.26745792 7.009818978 0.0 0.0 0.0 -3.48593576198e-05 6.56462478141e-05 1.3621026632e-05
48 1 9.523046743 9.26745792 7.009818978 0.0 0.0 0.0 -2.04866247486e-05 0.00015731845337 -0.000115925215094
49 2 17.422687622 4.415117298 0.380394729 0.0 0.0 0.0 -2.24887398277e-05 -0.000460320093043 -0.000389909898047
50 2 9.985878251 4.415117298 0.380394729 0.0 0.0 0.0 -1.32503982448e-05 -2.83723495632e-05 -8.96672753432e-05
51 2 21.141092236 10.855582612 0.380394729 0.0 0.0 0.0 0.00038432467339 0.000206602371255 -0.00041860563044
52 2 13.704282865 10.855582612 0.380394729 0.0 0.0 0.0 -0.000369076264137 0.000171778281981 -0.000365287746232
53 2 17.422687665 4.415117291 7.317244869 0.0 0.0 0.0 -1.27140278654e-05 7.30803261526e-05 0.000252872190425
54 2 9.985878294 4.415117291 7.317244869 0.0 0.0 0.0 -1.53960724976e-05 -2.85168823929e-05 0.000101537829973
55 2 21.14109228 10.855582605 7.317244869 0.0 0.0 0.0 -0.000104185243313 -8.12828078209e-05 0.000261716834543
56 2 13.704282908 10.855582605 7.317244869 0.0 0.0 0.0 7.2042975266e-05 -7.74181630104e-05 0.000245141369072
57 1 2.518088606 4.36145465 1.351467896 0.0 0.0 0.0 -2.07818325299e-05 -3.23710483663e-05 0.000339128534213
58 1 9.954897977 4.36145465 1.351467896 0.0 0.0 0.0 -1.98340222788e-05 -2.64227427165e-05 9.47750892388e-05
59 1 6.23649322 10.801919964 1.351467896 0.0 0.0 0.0 -1.92391197291e-05 -2.39920280684e-05 0.00040399455904
60 1 13.673302591 10.801919964 1.351467896 0.0 0.0 0.0 -1.6662343094e-05 -2.7273205865e-05 0.000339147117118
61 1 2.518088649 4.361454643 8.288318036 0.0 0.0 0.0 -1.97763582324e-05 -2.55548844781e-05 -8.78732532237e-05
62 1 9.95489802 4.361454643 8.288318036 0.0 0.0 0.0 -2.00349510825e-05 -2.60827537252e-05 -2.04680663962e-05
63 1 6.236493263 10.801919957 8.288318036 0.0 0.0 0.0 -2.00214732424e-05 -2.66536606641e-05 -9.92295629501e-05
64 1 13.673302635 10.801919957 8.288318036 0.0 0.0 0.0 -2.01658488886e-05 -2.62856965557e-05 -8.78724726523e-05
65 1 16.959856167 3.613473172 0.07296928 0.0 0.0 0.0 -8.38568651738e-05 0.000494749158282 0.00021932896756
66 1 9.523046796 3.613473172 0.07296928 0.0 0.0 0.0 -2.21212566524e-05 -5.34605375325e-05 9.60810578735e-05
67 1 20.678260782 10.053938486 0.07296928 0.0 0.0 0.0 -0.000121000593928 -0.000134437395238 0.000120475501119
68 1 13.24145141 10.053938486 0.07296928 0.0 0.0 0.0 0.00014191868326 -0.000219850845904 0.00015739605931
69 1 16.959856211 3.613473164 7.00981942 0.0 0.0 0.0 -1.82227118424e-05 -0.000158327860896 -0.000115904921793
70 1 9.523046839 3.613473164 7.00981942 0.0 0.0 0.0 -3.25832368013e-05 -6.6637943239e-05 1.3643629903e-05
71 1 20.678260825 10.053938478 7.00981942 0.0 0.0 0.0 1.6569474474e-05 -2.81494723111e-05 -2.61799287039e-05
72 1 13.241451453 10.053938478 7.00981942 0.0 0.0 0.0 -8.25743714032e-05 -1.24302393195e-05 -5.57379410063e-05
73 2 5.098138192 9.1e-08 3.848820961 0.0 0.0 0.0 0.00161984561483 -9.67382915642e-07 0.000550364294934
74 2 12.534947564 9.1e-08 3.848820961 0.0 0.0 0.0 -0.000357163424934 -9.69887176128e-07 -6.82603403551e-05
75 2 8.816542806 6.440465404 3.848820961 0.0 0.0 0.0 -3.94807610183e-05 -9.06011268389e-05 -5.7598567633e-05
76 2 16.253352178 6.440465404 3.848820961 0.0 0.0 0.0 -3.94870040165e-05 8.86844108894e-05 -5.7591208716e-05
77 2 5.098138235 8.3e-08 10.785671101 0.0 0.0 0.0 -0.000319575571858 -9.65516966359e-07 0.000527800095402
78 2 12.534947607 8.3e-08 10.785671101 0.0 0.0 0.0 0.000136021174587 -9.65614086912e-07 0.000179756374061
79 2 8.816542849 6.440465397 10.785671101 0.0 0.0 0.0 -2.5708313253e-05 6.0298011122e-05 9.10013250937e-05
80 2 16.253352221 6.440465397 10.785671101 0.0 0.0 0.0 -2.57147734477e-05 -6.22284013885e-05 9.10001413912e-05
81 1 12.472986142 12.880930033 4.819894401 0.0 0.0 0.0 -0.000357440967181 1.94578279363e-06 -0.000297588658055
82 1 19.909795513 12.880930033 4.819894401 0.0 0.0 0.0 0.000103264126874 1.94573559987e-06 -2.4351898193e-05
83 1 8.754581528 6.440464719 4.819894401 0.0 0.0 0.0 -3.80754995578e-05 4.74669731863e-05 1.85311435091e-05
84 1 16.191390899 6.440464719 4.819894401 0.0 0.0 0.0 -3.80707284073e-05 -4.35803200063e-05 1.85290178939e-05
85 1 12.472986185 12.880930026 11.756744541 0.0 0.0 0.0 0.000277082854393 1.944240103e-06 -0.000299341790479
86 1 19.909795557 12.880930026 11.756744541 0.0 0.0 0.0 -0.000187468410517 1.94427812451e-06 -2.48452341894e-05
87 1 8.754581571 6.440464712 11.756744541 0.0 0.0 0.0 -4.5560807449e-05 -4.36795724152e-05 1.77775417533e-05
88 1 16.191390943 6.440464712 11.756744541 0.0 0.0 0.0 -4.556097503e-05 4.75679404788e-05 1.77777333076e-05
89 1 4.172478132 1.2e-08 3.541396305 0.0 0.0 0.0 -0.00229066544167 -2.66142201047e-07 -0.00114650754341
90 1 11.609287504 1.2e-08 3.541396305 0.0 0.0 0.0 -1.0069163345e-05 -2.66278066777e-07 0.000120374884793
91 1 7.890882746 6.440465326 3.541396305 0.0 0.0 0.0 -6.10754203008e-05 2.66461411533e-05 0.000103800353174
92 1 15.327692118 6.440465326 3.541396305 0.0 0.0 0.0 -6.10740478203e-05 -2.71837741684e-05 0.000103796921733
93 1 4.172478175 5e-09 10.478246445 0.0 0.0 0.0 8.31421285453e-06 -2.68124636089e-07 -0.000266618586503
94 1 11.609287547 5e-09 10.478246445 0.0 0.0 0.0 -9.53152961e-05 -2.6806703779e-07 -7.2936771762e-06
95 1 7.890882789 6.440465319 10.478246445 0.0 0.0 0.0 -6.88331391853e-05 -1.56883978975e-05 2.28507313546e-06
96 1 15.327692161 6.440465319 10.478246445 0.0 0.0 0.0 -6.88310425524e-05 1.51516313696e-05 2.28553616715e-06
97 2 12.324550744 4.415115375 3.848820709 0.0 0.0 0.0 -6.13656557392e-05 3.27341090773e-05 -5.43753017283e-05
98 2 4.887741372 4.415115375 3.848820709 0.0 0.0 0.0 0.0001636188877 0.000226639095625 -6.8439456598e-05
99 2 16.042955358 10.855580689 3.848820709 0.0 0.0 0.0 8.57430845176e-05 -5.69451125237e-05 -5.37333207507e-05
100 2 8.606145986 10.855580689 3.848820709 0.0 0.0 0.0 -0.000834036452874 -0.00160318042189 0.000707508984181
101 2 12.324550787 4.415115367 10.785670849 0.0 0.0 0.0 6.43112026231e-05 -6.13242071588e-05 9.61487220128e-05
102 2 4.887741415 4.415115367 10.785670849 0.0 0.0 0.0 -6.51837577824e-05 -0.000152489098662 0.000170294183793
103 2 16.042955401 10.855580681 10.785670849 0.0 0.0 0.0 -3.57095721241e-05 -4.54233365227e-08 9.22880360186e-05
104 2 8.606146029 10.855580681 10.785670849 0.0 0.0 0.0 0.000147721079386 0.000242286267232 0.000582696452038
105 1 12.355530592 4.361455296 4.81989398 0.0 0.0 0.0 5.70530351611e-05 -5.84054396434e-05 2.30749772281e-05
106 1 4.91872122 4.361455296 4.81989398 0.0 0.0 0.0 -3.69189809927e-05 -0.000138264908719 -7.36013154324e-06
107 1 16.073935206 10.801920609 4.81989398 0.0 0.0 0.0 -1.61196294554e-05 -1.63875282007e-05 2.39365282782e-05
108 1 8.637125834 10.801920609 4.81989398 0.0 0.0 0.0 0.000201120537721 0.000259477543352 -0.000379589873043
109 1 12.355530635 4.361455288 11.75674412 0.0 0.0 0.0 -1.16897655637e-05 -8.43569042281e-06 2.31857437185e-05
110 1 4.918721263 4.361455288 11.75674412 0.0 0.0 0.0 8.37521971078e-05 7.08493470641e-05 -7.90160344657e-06
111 1 16.073935249 10.801920602 11.75674412 0.0 0.0 0.0 6.14411901911e-05 -5.0889373751e-05 2.23195601326e-05
112 1 8.637125877 10.801920602 11.75674412 0.0 0.0 0.0 -0.000143823104301 -0.000337942693727 -0.000382048927647
113 1 12.787381758 3.613470486 3.541396271 0.0 0.0 0.0 0.000104366884658 -0.000113222970877 0.000120370414237
114 1 5.350572387 3.613470486 3.541396271 0.0 0.0 0.0 -0.000105443012498 -0.000203690050012 0.000147237717564
115 1 16.505786372 10.0539358 3.541396271 0.0 0.0 0.0 2.00245920134e-05 -4.41945358842e-05 9.78461088038e-05
116 1 9.068977001 10.0539358 3.541396271 0.0 0.0 0.0 0.000138415914518 0.000664065061842 0.000157873674935
117 1 12.787381802 3.613470479 10.478246411 0.0 0.0 0.0 -8.48588386521e-06 -2.46480599318e-05 -1.80023144094e-05
118 1 5.35057243 3.613470479 10.478246411 0.0 0.0 0.0 7.63985558308e-05 -5.03672110893e-06 -5.36720772743e-05
119 1 16.505786416 10.053935793 10.478246411 0.0 0.0 0.0 3.47260352466e-05 -6.08296975315e-05 1.21712695134e-05
120 1 9.068977044 10.053935793 10.478246411 0.0 0.0 0.0 1.88065637887e-05 -0.000150533465999 -0.00013496199893
121 2 16.042954883 2.025349614 3.848821218 0.0 0.0 0.0 -0.000832936494404 0.00160372034915 0.000707422462768
122 2 8.606145512 2.025349614 3.848821218 0.0 0.0 0.0 8.68567277147e-05 5.74978238734e-05 -5.38291717294e-05
123 2 19.761359497 8.465814928 3.848821218 0.0 0.0 0.0 -6.02474778726e-05 -3.21714007494e-05 -5.44640471593e-05
124 2 12.324550126 8.465814928 3.848821218 0.0 0.0 0.0 0.000164719502186 -0.000226097332975 -6.85215404924e-05
125 2 16.042954927 2.025349607 10.785671358 0.0 0.0 0.0 0.000148819591977 -0.000241724924693 0.000582615659714
126 2 8.606145555 2.025349607 10.785671358 0.0 0.0 0.0 -3.45910905812e-05 6.25593271691e-07 9.22043253849e-05
127 2 19.761359541 8.46581492 10.785671358 0.0 0.0 0.0 6.54454875684e-05 6.19428323403e-05 9.60548526455e-05
128 2 12.324550169 8.46581492 10.785671358 0.0 0.0 0.0 -6.40458510523e-05 0.00015311516067 0.000170207520403
129 1 16.07393341 2.079010738 4.819894452 0.0 0.0 0.0 0.000205921699032 -0.000262471566133 -0.000379474531772
130 1 8.637124038 2.079010738 4.819894452 0.0 0.0 0.0 -1.13165001099e-05 1.33936077589e-05 2.40528433646e-05
131 1 19.792338024 8.519476052 4.819894452 0.0 0.0 0.0 6.18518166817e-05 5.54043995211e-05 2.3188286211e-05
132 1 12.355528653 8.519476052 4.819894452 0.0 0.0 0.0 -3.21195436453e-05 0.000135264567985 -7.24726610891e-06
133 1 16.073933453 2.079010731 11.756744592 0.0 0.0 0.0 -0.000139021700142 0.000334944010553 -0.000381937419504
134 1 8.637124082 2.079010731 11.756744592 0.0 0.0 0.0 6.62401512785e-05 4.78886381534e-05 2.24296368538e-05
135 1 19.792338067 8.519476045 11.756744592 0.0 0.0 0.0 -6.89013622566e-06 5.4312365261e-06 2.32965629972e-05
136 1 12.355528696 8.519476045 11.756744592 0.0 0.0 0.0 8.8549034643e-05 -7.3856010117e-05 -7.79309055631e-06
137 1 1.632167798 2.826994038 3.541396624 0.0 0.0 0.0 0.00013654615015 -0.000661937101049 0.000157980331664
138 1 9.06897717 2.826994038 3.541396624 0.0 0.0 0.0 1.81442539824e-05 4.63098919233e-05 9.79600100926e-05
139 1 5.350572412 9.267459352 3.541396624 0.0 0.0 0.0 0.00010248633979 0.000115336635229 0.000120478754095
140 1 12.787381784 9.267459352 3.541396624 0.0 0.0 0.0 -0.00010731303482 0.000205819911739 0.000147340491522
141 1 1.632167841 2.826994031 10.478246764 0.0 0.0 0.0 1.69332750172e-05 0.000152650176406 -0.000134854098638
142 1 9.068977213 2.826994031 10.478246764 0.0 0.0 0.0 3.28415608585e-05 6.29302583915e-05 1.22828900722e-05
143 1 5.350572456 9.267459345 10.478246764 0.0 0.0 0.0 -1.03855691804e-05 2.67191121379e-05 -1.78824390431e-05
144 1 12.787381827 9.267459345 10.478246764 0.0 0.0 0.0 7.44974070909e-05 7.10650093113e-06 -5.3554237485e-05
145 2 12.258736453 12.880930313 6.469757221 0.0 0.0 0.0 0.000233605804191 -7.04779808897e-07 0.000454532320102
146 2 19.695545825 12.880930313 6.469757221 0.0 0.0 0.0 -0.000189371429737 -7.24770816931e-07 0.000129736146122
147 2 8.540331839 6.440464999 6.469757221 0.0 0.0 0.0 -4.8970525797e-05 -5.53670880998e-05 4.49680281719e-05
148 2 15.97714121 6.440464999 6.469757221 0.0 0.0 0.0 -4.89322837714e-05 5.39527340496e-05 4.49826206545e-05
149 2 12.258736496 12.880930306 13.40660736 0.0 0.0 0.0 -0.00216268683168 -7.04545542208e-07 0.000561364835531
150 2 19.695545868 12.880930306 13.40660736 0.0 0.0 0.0 0.000291977372779 -7.01926910211e-07 -0.000179581202803
151 2 8.540331882 6.440464992 13.40660736 0.0 0.0 0.0 -3.57430643127e-05 8.65529773757e-05 -0.000131472819339
152 2 15.977141254 6.440464992 13.40660736 0.0 0.0 0.0 -3.57484778295e-05 -8.80132591928e-05 -0.000131472777168
153 1 5.331166141 0.766954845 6.788243965 0.0 0.0 0.0 -0.000157469201299 -2.19462846766e-05 -0.000205861440287
154 1 12.767975512 0.766954845 6.788243965 0.0 0.0 0.0 9.69613187923e-06 -1.34542355243e-07 -0.000136047874392
155 1 9.049570755 7.207420159 6.788243965 0.0 0.0 0.0 -5.54738853315e-05 6.45999849955e-05 -9.68033891875e-05
156 1 16.486380127 7.207420159 6.788243965 0.0 0.0 0.0 -6.39202223695e-05 8.77099860309e-06 -6.61520564766e-05
157 1 5.331166184 0.766954838 13.725094105 0.0 0.0 0.0 0.00059180029058 0.000292610037377 0.000130683638897
158 1 12.767975556 0.766954838 13.725094105 0.0 0.0 0.0 -0.000282115545119 6.6332907345e-05 8.58235528609e-05
159 1 9.049570798 7.207420151 13.725094105 0.0 0.0 0.0 -7.35099719335e-05 -8.02021083127e-05 4.74118792272e-05
160 1 16.48638017 7.207420151 13.725094105 0.0 0.0 0.0 -5.75864076808e-05 2.94340234046e-05 1.84951279812e-05
161 1 16.486380702 5.673510068 6.788243516 0.0 0.0 0.0 -5.56043534962e-05 -6.47206498963e-05 -9.42509052887e-05
162 1 9.04957133 5.673510068 6.788243516 0.0 0.0 0.0 -6.40173689902e-05 -8.91668632682e-06 -6.35825183581e-05
163 1 20.204785316 12.113975382 6.788243516 0.0 0.0 0.0 9.57116208933e-06 1.80150710599e-08 -0.000133492933485
164 1 12.767975944 12.113975382 6.788243516 0.0 0.0 0.0 -0.000157581876677 2.18125497341e-05 -0.000203299175412
165 1 16.486380745 5.673510061 13.725093655 0.0 0.0 0.0 -7.36335910175e-05 8.00861662421e-05 4.99690905861e-05
166 1 9.049571373 5.673510061 13.725093655 0.0 0.0 0.0 -5.77093823595e-05 -2.95492015889e-05 2.10516121122e-05
167 1 20.204785359 12.113975375 13.725093655 0.0 0.0 0.0 -0.000282223418555 -6.64749846427e-05 8.83904989088e-05
168 1 12.767975987 12.113975375 13.725093655 0.0 0.0 0.0 0.000591691493634 -0.000292750588912 0.00013325006399
169 2 12.462655523 4.175912014 6.46975888 0.0 0.0 0.0 -2.80360245517e-05 -8.29282261174e-06 4.06331396357e-05
170 2 5.025846151 4.175912014 6.46975888 0.0 0.0 0.0 8.68433630841e-05 7.49419307825e-05 0.000111114876779
171 2 16.181060137 10.616377328 6.46975888 0.0 0.0 0.0 6.23981973575e-05 -6.28763198021e-05 3.62196654505e-05
172 2 8.744250765 10.616377328 6.46975888 0.0 0.0 0.0 -0.000115129334123 -0.000287170512599 0.00047973512412
173 2 12.462655566 4.175912007 13.406609019 0.0 0.0 0.0 8.95330959044e-05 -9.59308155956e-05 -0.000139521046601
174 2 5.025846194 4.175912007 13.406609019 0.0 0.0 0.0 -0.000136186294137 -0.000297645629397 -0.000175207649904
175 2 16.18106018 10.616377321 13.406609019 0.0 0.0 0.0 -5.44583939384e-05 -8.76271453416e-06 -0.000135125044868
176 2 8.744250808 10.616377321 13.406609019 0.0 0.0 0.0 0.00118275507965 0.00215513848968 0.000706076076576
177 1 4.107023344 4.233448053 6.788243333 0.0 0.0 0.0 -9.59917395936e-06 -0.000131752660422 -0.000132694489597
178 1 11.543832716 4.233448053 6.788243333 0.0 0.0 0.0 2.47180042082e-05 -6.46311016557e-05 -6.33014368079e-05
179 1 7.825427958 10.673913367 6.788243333 0.0 0.0 0.0 9.35401021069e-05 6.83065039524e-06 -0.000204310059048
180 1 15.26223733 10.673913367 6.788243333 0.0 0.0 0.0 -2.64406344563e-05 -4.37563523223e-05 -8.81973663496e-05
181 1 4.107023387 4.233448046 13.725093473 0.0 0.0 0.0 9.23165301683e-05 0.000155362912813 8.53459422662e-05
182 1 11.543832759 4.233448046 13.725093473 0.0 0.0 0.0 -1.43108319566e-06 -5.58789136267e-05 2.41005608154e-05
183 1 7.825428001 10.67391336 13.725093473 0.0 0.0 0.0 -0.000554731494368 -0.000515897055811 0.000190115847848
184 1 15.262237373 10.67391336 13.725093473 0.0 0.0 0.0 9.48435228333e-05 -9.54099304348e-05 4.64058425936e-05
185 1 12.872237203 5.00040447 6.78824545 0.0 0.0 0.0 5.91668741641e-05 -6.16809138685e-05 -8.11252918928e-05
186 1 5.435427832 5.00040447 6.78824545 0.0 0.0 0.0 3.40864181223e-05 -7.11464206187e-05 -8.48941096997e-05
187 1 16.590641818 11.440869783 6.78824545 0.0 0.0 0.0 3.75650421747e-05 -4.5641119394e-05 -7.81285719911e-05
188 1 9.153832446 11.440869783 6.78824545 0.0 0.0 0.0 8.22881350937e-05 3.11961892037e-05 -0.000386986387876
189 1 12.872237247 5.000404462 13.72509559 0.0 0.0 0.0 2.69689696871e-05 -2.9914458658e-05 2.39842631492e-05
190 1 5.435427875 5.000404462 13.72509559 0.0 0.0 0.0 6.94870005749e-05 -1.55853715101e-05 3.2451998328e-05
191 1 16.590641861 11.440869776 13.72509559 0.0 0.0 0.0 6.4211683179e-05 -5.75672626643e-05 2.06267405005e-05
192 1 9.153832489 11.440869776 13.72509559 0.0 0.0 0.0 -0.0013797849608 -0.00333263955696 -0.00311205271943
193 2 1.307441393 2.264553585 6.469759523 0.0 0.0 0.0 -0.000117375606632 0.000288537246236 0.000479670869014
194 2 8.744250764 2.264553585 6.469759523 0.0 0.0 0.0 6.02130722792e-05 6.42379014131e-05 3.61450840954e-05
195 2 5.025846007 8.705018899 6.469759523 0.0 0.0 0.0 -3.02747389266e-05 9.69304427611e-06 4.05616659377e-05
196 2 12.462655379 8.705018899 6.469759523 0.0 0.0 0.0 8.45918404399e-05 -7.35357809276e-05 0.000111037653453
197 2 1.307441436 2.264553578 13.406609663 0.0 0.0 0.0 0.00118051820855 -0.00215375950243 0.000705992018951
198 2 8.744250808 2.264553578 13.406609663 0.0 0.0 0.0 -5.67026694036e-05 1.01431092468e-05 -0.000135206755339
199 2 5.02584605 8.705018892 13.406609663 0.0 0.0 0.0 8.73079402281e-05 9.72768452738e-05 -0.000139593584423
200 2 12.462655422 8.705018892 13.406609663 0.0 0.0 0.0 -0.00013841704691 0.000298997955752 -0.00017527984993
201 1 1.717022388 1.440060952 6.788246651 0.0 0.0 0.0 8.2790529957e-05 -2.93877374295e-05 -0.000390312665413
202 1 9.15383176 1.440060952 6.788246651 0.0 0.0 0.0 3.80565938795e-05 4.74632156219e-05 -8.14596990604e-05
203 1 5.435427002 7.880526266 6.788246651 0.0 0.0 0.0 5.96700165957e-05 6.34712328359e-05 -8.44450846341e-05
204 1 12.872236374 7.880526266 6.788246651 0.0 0.0 0.0 3.46008668656e-05 7.29247227512e-05 -8.82095332451e-05
205 1 1.717022431 1.440060945 13.725096791 0.0 0.0 0.0 -0.00137928353286 0.00333444608729 -0.00311537599102
206 1 9.153831803 1.440060945 13.725096791 0.0 0.0 0.0 6.47208565559e-05 5.93641158653e-05 1.73062488277e-05
207 1 5.435427045 7.880526258 13.725096791 0.0 0.0 0.0 2.74661586181e-05 3.17419516135e-05 2.06526978998e-05
208 1 12.872236417 7.880526258 13.725096791 0.0 0.0 0.0 6.99825700051e-05 1.74110854232e-05 2.9121656243e-05
209 1 15.262237079 2.207018097 6.788243067 0.0 0.0 0.0 9.14975759914e-05 -8.67261278048e-06 -0.000200610811512
210 1 7.825427708 2.207018097 6.788243067 0.0 0.0 0.0 -2.85216090141e-05 4.19092234976e-05 -8.44829190429e-05
211 1 18.980641693 8.647483411 6.788243067 0.0 0.0 0.0 2.26750052807e-05 6.27835928075e-05 -5.95995038548e-05
212 1 11.543832322 8.647483411 6.788243067 0.0 0.0 0.0 -1.16429927935e-05 0.000129907897117 -0.000128993013979
213 1 15.262237122 2.207018089 13.725093207 0.0 0.0 0.0 -0.000556785043598 0.000514054067367 0.00019382177493
214 1 7.825427751 2.207018089 13.725093207 0.0 0.0 0.0 9.27915869603e-05 9.35676212272e-05 5.01104796276e-05
215 1 18.980641736 8.647483403 13.725093207 0.0 0.0 0.0 -3.48467544331e-06 5.40378081205e-05 2.78060079238e-05
216 1 11.543832365 8.647483403 13.725093207 0.0 0.0 0.0 9.02644282288e-05 -0.000157204714363 8.90505208574e-05
217 2 10.05169036 12.880930562 3.001331049 0.0 0.0 0.0 0.00157385369131 1.17424874391e-06 0.022249194465
218 2 17.488499731 12.880930562 3.001331049 0.0 0.0 0.0 4.24094214193e-05 1.20117805877e-06 -0.000156593565253
219 2 6.333285745 6.440465248 3.001331049 0.0 0.0 0.0 4.85362250267e-05 -2.30724445517e-06 -0.000156534497233
220 2 13.770095117 6.440465248 3.001331049 0.0 0.0 0.0 4.85368293713e-05 4.72973145591e-06 -0.000156535257507
221 2 10.051690403 12.880930555 9.938181189 0.0 0.0 0.0 3.21060985475e-05 1.17788168503e-06 0.000625798501619
222 2 17.488499774 12.880930555 9.938181189 0.0 0.0 0.0 5.34757661634e-05 1.18095755733e-06 6.46105715815e-05
223 2 6.333285789 6.440465241 9.938181189 0.0 0.0 0.0 4.95923875662e-05 3.39518804404e-06 6.45483342695e-05
224 2 13.77009516 6.440465241 9.938181189 0.0 0.0 0.0 4.96308221665e-05 -1.04352602892e-06 6.45319977275e-05
225 1 13.26085702 5.67351034 3.319819519 0.0 0.0 0.0 7.88494825028e-05 -3.59903040182e-05 2.07506570835e-05
226 1 5.824047648 5.67351034 3.319819519 0.0 0.0 0.0 3.95021720028e-05 -5.20978408868e-05 2.48694942126e-05
227 1 16.979261634 12.113975653 3.319819519 0.0 0.0 0.0 4.77780771279e-05 -1.08304744838e-05 1.89331539995e-05
228 1 9.542452262 12.113975653 3.319819519 0.0 0.0 0.0 0.00192888211914 0.00416609930049 -0.00208893784661
229 1 13.260857063 5.673510332 10.256669659 0.0 0.0 0.0 5.08370258322e-05 -6.98114965128e-06 -7.95190056753e-05
230 1 5.824047691 5.673510332 10.256669659 0.0 0.0 0.0 7.33415008534e-05 1.42467731873e-06 -8.32989696848e-05
231 1 16.979261677 12.113975646 10.256669659 0.0 0.0 0.0 6.8736452505e-05 -2.17993989779e-05 -7.74682502276e-05
232 1 9.542452305 12.113975646 10.256669659 0.0 0.0 0.0 4.62840560794e-05 -7.03980862222e-05 -0.00037679198122
233 1 2.105642892 0.766955018 3.319818703 0.0 0.0 0.0 0.00192804210766 -0.00416606098993 -0.00208496992788
234 1 9.542452263 0.766955018 3.319818703 0.0 0.0 0.0 4.69465657171e-05 1.086064542e-05 2.29065517356e-05
235 1 5.824047506 7.207420332 3.319818703 0.0 0.0 0.0 7.80212920103e-05 3.6009765932e-05 2.47195793619e-05
236 1 13.260856878 7.207420332 3.319818703 0.0 0.0 0.0 3.86739953626e-05 5.21173220327e-05 2.88382361683e-05
237 1 2.105642935 0.766955011 10.256668843 0.0 0.0 0.0 4.54392063013e-05 7.04462811587e-05 -0.000372811638079
238 1 9.542452307 0.766955011 10.256668843 0.0 0.0 0.0 6.78915419008e-05 2.18464107943e-05 -7.34886256649e-05
239 1 5.824047549 7.207420325 10.256668843 0.0 0.0 0.0 5.00070853839e-05 7.0171037734e-06 -7.55461858427e-05
240 1 13.260856921 7.207420325 10.256668843 0.0 0.0 0.0 7.24787229727e-05 -1.36333057935e-06 -7.93096208069e-05
241 2 13.566178647 2.264553318 3.001331607 0.0 0.0 0.0 -0.00046127113115 0.000300806094622 -0.000348439448746
242 2 6.129369276 2.264553318 3.001331607 0.0 0.0 0.0 0.000358594355473 0.000254222409996 -0.000334615974543
243 2 17.284583261 8.705018632 3.001331607 0.0 0.0 0.0 -2.49441855876e-05 4.08321081554e-05 -0.000135549487026
244 2 9.84777389 8.705018632 3.001331607 0.0 0.0 0.0 -1.1052520237e-05 -0.000428241731674 -0.00034065332703
245 2 13.56617869 2.26455331 9.938181747 0.0 0.0 0.0 8.31719853409e-05 -2.25398049781e-05 0.000207751068812
246 2 6.129369319 2.26455331 9.938181747 0.0 0.0 0.0 -0.000121397465139 -1.39158319803e-05 0.000188155776093
247 2 17.284583305 8.705018624 9.938181747 0.0 0.0 0.0 -2.12149180748e-05 4.07673018645e-05 3.94190088951e-05
248 2 9.847773933 8.705018624 9.938181747 0.0 0.0 0.0 -2.66126403553e-05 0.000158529954029 0.000197049938455
249 1 14.485000752 2.20701716 3.319818255 0.0 0.0 0.0 0.000405313663532 -0.000291722609654 8.65908424785e-05
250 1 7.048191381 2.20701716 3.319818255 0.0 0.0 0.0 -9.55905037297e-05 2.90528744027e-05 3.60904400848e-05
251 1 18.203405367 8.647482473 3.319818255 0.0 0.0 0.0 -1.66990952782e-06 6.59975468237e-05 1.51324560309e-05
252 1 10.766595995 8.647482473 3.319818255 0.0 0.0 0.0 -8.5439257524e-05 0.000291662788997 7.31259441386e-05
253 1 14.485000796 2.207017152 10.256668395 0.0 0.0 0.0 -8.87247045095e-05 0.000124070887368 -0.00020690319962
254 1 7.048191424 2.207017152 10.256668395 0.0 0.0 0.0 2.70978752089e-05 7.99808826815e-05 -9.68188221391e-05
255 1 18.20340541 8.647482466 10.256668395 0.0 0.0 0.0 -2.53437199862e-05 5.77366714828e-05 -6.69858468946e-05
256 1 10.766596038 8.647482466 10.256668395 0.0 0.0 0.0 4.74581838674e-06 -9.33828392449e-06 -0.000142834765289
257 1 5.719786092 1.440061854 3.319818129 0.0 0.0 0.0 -0.000520739377015 -0.000151601671093 0.000100745285892
258 1 13.156595464 1.440061854 3.319818129 0.0 0.0 0.0 0.000180126231126 -1.47927528503e-05 7.07231494666e-05
259 1 9.438190706 7.880527168 3.319818129 0.0 0.0 0.0 -2.83861004085e-05 0.000145020308529 4.24381837402e-05
260 1 16.875000078 7.880527168 3.319818129 0.0 0.0 0.0 -4.77081143784e-05 3.24461109471e-05 1.68906754826e-05
261 1 5.719786135 1.440061847 10.256668269 0.0 0.0 0.0 4.09860126926e-05 7.82457228288e-05 -0.000195678467776
262 1 13.156595507 1.440061847 10.256668269 0.0 0.0 0.0 -0.000115851274402 6.50144857826e-05 -0.000139090190318
263 1 9.438190749 7.880527161 10.256668269 0.0 0.0 0.0 -4.99630054125e-05 -7.54079563217e-06 -0.000100287775905
264 1 16.875000121 7.880527161 10.256668269 0.0 0.0 0.0 -4.20422572972e-05 5.22520443495e-05 -6.37612056294e-05
265 2 2.410964342 4.175911908 3.001332195 0.0 0.0 0.0 -9.29461335676e-06 0.000426937445374 -0.000341541078335
266 2 9.847773713 4.175911908 3.001332195 0.0 0.0 0.0 -2.3193165653e-05 -4.21249623342e-05 -0.000136430693567
267 2 6.129368956 10.616377222 3.001332195 0.0 0.0 0.0 -0.000459490010517 -0.000302085200007 -0.000349301132796
268 2 13.566178327 10.616377222 3.001332195 0.0 0.0 0.0 0.000360394053812 -0.000255508918286 -0.000335481959408
269 2 2.410964385 4.175911901 9.938182334 0.0 0.0 0.0 -2.48165461563e-05 -0.000159786515107 0.000196204086331
270 2 9.847773757 4.175911901 9.938182334 0.0 0.0 0.0 -1.94706741648e-05 -4.20160094323e-05 3.85658331333e-05
271 2 6.129368999 10.616377215 9.938182334 0.0 0.0 0.0 8.49216287176e-05 2.12539298823e-05 0.000206884957758
272 2 13.566178371 10.616377215 9.938182334 0.0 0.0 0.0 -0.00011963963029 1.26310065706e-05 0.000187292755223