ITEM: TIMESTEP
0
ITEM: NUMBER OF ATOMS
288
ITEM: BOX BOUNDS xy xz yz xx yy zz
0.0 14.873618743 7.436809228
0.0 12.880930628 8.6e-08
0.0 13.87370028 -1.5e-08
ITEM: ATOMS id type x y z vx vy vz fx fy fz
1 2 2.338671397 1.12e-07 0.380392751 0.0 0.0 0.0 8.31243920576e-05 2.51262792914e-05 0.00037239508315
2 2 9.775480768 1.12e-07 0.380392751 0.0 0.0 0.0 -1.25568014966e-05 1.13075061503e-05 0.000241931367712
3 2 6.057076011 6.440465426 0.380392751 0.0 0.0 0.0 2.44968004507e-05 -2.96739346285e-05 0.000179194228432
4 2 13.493885382 6.440465426 0.380392751 0.0 0.0 0.0 3.08281342642e-05 4.74331980629e-06 0.000118161009465
5 2 2.33867144 1.04e-07 7.317242891 0.0 0.0 0.0 -0.000432674998349 -0.000365503689408 -0.00128394358029
6 2 9.775480812 1.04e-07 7.317242891 0.0 0.0 0.0 0.000195551959118 -3.88141554392e-05 -0.000403985243138
7 2 6.057076054 6.440465418 7.317242891 0.0 0.0 0.0 3.94281835866e-05 7.58787083125e-05 -0.000217638675518
8 2 13.493885426 6.440465418 7.317242891 0.0 0.0 0.0 2.51618198653e-05 -5.41993702921e-06 -0.000100287539233
9 1 2.400632363 4.61e-07 1.351465958 0.0 0.0 0.0 -5.58603471359e-05 -4.12776216533e-05 -0.000142667307383
10 1 9.837441735 4.61e-07 1.351465958 0.0 0.0 0.0 0.000112842150686 -1.92826785604e-05 -7.2531625736e-05
11 1 6.119036977 6.440465774 1.351465958 0.0 0.0 0.0 4.71372784489e-05 4.5932667829e-05 -3.32192120628e-05
12 1 13.555846349 6.440465774 1.351465958 0.0 0.0 0.0 3.86481523154e-05 -1.03035794745e-05 -2.57696058069e-06
13 1 2.400632406 4.53e-07 8.288316098 0.0 0.0 0.0 0.000693840707932 0.000273201984991 0.000187369180237
14 1 9.837441778 4.53e-07 8.288316098 0.0 0.0 0.0 -0.000180093224058 4.75382923679e-05 0.000147024500257
15 1 6.11903702 6.440465767 8.288316098 0.0 0.0 0.0 2.90731317727e-05 -9.95199362375e-05 0.000109539159205
16 1 13.555846392 6.440465767 8.288316098 0.0 0.0 0.0 4.50540933742e-05 1.05772237993e-05 8.10169298761e-05
17 1 10.701141082 12.880930558 0.072968506 0.0 0.0 0.0 6.19813077513e-05 -2.80467559746e-06 -0.000177286583192
18 1 18.137950453 12.880930558 0.072968506 0.0 0.0 0.0 5.94839529143e-05 7.5155027943e-07 -2.36295936102e-05
19 1 6.982736468 6.440465244 0.072968506 0.0 0.0 0.0 6.24533286124e-05 6.03264465994e-07 -2.26821686435e-05
20 1 14.419545839 6.440465244 0.072968506 0.0 0.0 0.0 6.08512273534e-05 1.43110419046e-06 5.38941062897e-08
21 1 10.701141125 12.880930551 7.009818646 0.0 0.0 0.0 -0.000553526986594 0.000364436222158 0.0019042685043
22 1 18.137950497 12.880930551 7.009818646 0.0 0.0 0.0 7.56803564281e-05 -2.52857229754e-06 0.000167179530573
23 1 6.982736511 6.440465237 7.009818646 0.0 0.0 0.0 5.91241964562e-05 -3.66281631174e-08 0.000167169852349
24 1 14.419545882 6.440465237 7.009818646 0.0 0.0 0.0 6.26418778041e-05 -1.47674662177e-06 0.000119207349638
25 2 13.704282012 2.025348059 0.380394512 0.0 0.0 0.0 -5.5270375261e-06 2.52689162449e-05 0.000131300387986
26 2 6.26747264 2.025348059 0.380394512 0.0 0.0 0.0 -3.94872123141e-05 -9.22719214127e-06 0.000572526629241
27 2 17.422686626 8.465813373 0.380394512 0.0 0.0 0.0 -1.98723841434e-05 3.22928664499e-05 0.000127947867763
28 2 9.985877254 8.465813373 0.380394512 0.0 0.0 0.0 -7.63618966388e-06 4.0496315204e-05 0.000143015934468
29 2 13.704282055 2.025348052 7.317244652 0.0 0.0 0.0 -3.19799134156e-05 3.27568266936e-05 -0.000140547488566
30 2 6.267472684 2.025348052 7.317244652 0.0 0.0 0.0 0.00603698799661 0.00956151732293 -0.00669117789965
31 2 17.422686669 8.465813365 7.317244652 0.0 0.0 0.0 -4.24956017864e-06 1.92766314395e-05 -0.000134484695295
32 2 9.985877298 8.465813365 7.317244652 0.0 0.0 0.0 -2.29820207462e-05 1.10836790871e-05 -0.000161349065677
33 1 13.673300338 2.079010187 1.351467718 0.0 0.0 0.0 -3.01629829128e-05 3.28837126099e-05 -1.9667972282e-05
34 1 6.236490966 2.079010187 1.351467718 0.0 0.0 0.0 3.94426036314e-05 0.000100157813108 -0.000327058037469
35 1 17.391704952 8.519475501 1.351467718 0.0 0.0 0.0 -5.28322503993e-06 2.209392618e-05 -1.668017365e-05
36 1 9.95489558 8.519475501 1.351467718 0.0 0.0 0.0 -2.57940657234e-05 6.20501220216e-06 -2.34263474999e-05
37 1 13.673300381 2.07901018 8.288317858 0.0 0.0 0.0 1.37786130771e-05 2.08792139126e-05 8.42750995322e-05
38 1 6.236491009 2.07901018 8.288317858 0.0 0.0 0.0 -0.0021074312368 -0.00279645783969 -0.00305631582348
39 1 17.391704995 8.519475493 8.288317858 0.0 0.0 0.0 -2.90160824941e-05 3.94079753879e-05 8.09529673324e-05
40 1 9.954895623 8.519475493 8.288317858 0.0 0.0 0.0 4.91902240061e-06 6.51474545255e-05 9.26358098651e-05
41 1 13.241451457 2.826992613 0.072968839 0.0 0.0 0.0 -2.94722991018e-05 6.05166766925e-05 -1.58348277789e-06
42 1 5.804642085 2.826992613 0.072968839 0.0 0.0 0.0 -3.42587627658e-05 6.27567396044e-05 -0.000183503913221
43 1 16.959856071 9.267457927 0.072968839 0.0 0.0 0.0 -3.03223496634e-05 5.89851340911e-05 -1.90125918132e-05
44 1 9.523046699 9.267457927 0.072968839 0.0 0.0 0.0 -3.06001649441e-05 6.09474342796e-05 -2.33635561922e-05
45 1 13.2414515 2.826992606 7.009818978 0.0 0.0 0.0 -3.32830504859e-05 6.00892678807e-05 0.000120741992931
46 1 5.804642128 2.826992606 7.009818978 0.0 0.0 0.0 0.000859198421084 0.000651886128217 0.00276937306468
47 1 16.959856114 9.26745792 7.009818978 0.0 0.0 0.0 -3.16669948244e-05 6.33758667598e-05 0.000155980734633
48 1 9.523046743 9.26745792 7.009818978 0.0 0.0 0.0 -3.57126202408e-05 5.41509496178e-05 0.000160135493238
49 2 17.422687622 4.415117298 0.380394729 0.0 0.0 0.0 1.65840743301e-05 -6.12056279465e-05 0.000247359080807
50 2 9.985878251 4.415117298 0.380394729 0.0 0.0 0.0 -3.82828901101e-05 -4.59642212093e-05 0.000169744319365
51 2 21.141092236 10.855582612 0.380394729 0.0 0.0 0.0 -1.06476085543e-05 -2.40675464391e-05 0.000113059753897
52 2 13.704282865 10.855582612 0.380394729 0.0 0.0 0.0 -2.28582142134e-05 2.972654107e-05 0.000352781697379
53 2 17.422687665 4.415117291 7.317244869 0.0 0.0 0.0 -0.000145749030439 0.000117446820239 -0.000449735314857
54 2 9.985878294 4.415117291 7.317244869 0.0 0.0 0.0 4.35849423182e-05 1.49969275547e-05 -0.000217142378472
55 2 21.14109228 10.855582605 7.317244869 0.0 0.0 0.0 -2.0299084346e-05 -3.51783267709e-05 -0.000108662899365
56 2 13.704282908 10.855582605 7.317244869 0.0 0.0 0.0 -0.000109220864309 -0.000453394266336 -0.00114730759842
57 1 2.518088606 4.36145465 1.351467896 0.0 0.0 0.0 -6.94766139989e-05 3.01087938545e-05 -7.88704199803e-05
58 1 9.954897977 4.36145465 1.351467896 0.0 0.0 0.0 1.57941673613e-05 4.13705520184e-07 -3.43139255585e-05
59 1 6.23649322 10.801919964 1.351467896 0.0 0.0 0.0 -2.81917623143e-05 -3.37017691399e-05 -9.42983303531e-06
60 1 13.673302591 10.801919964 1.351467896 0.0 0.0 0.0 -3.88942692377e-07 -0.00012996840381 -0.000150829136111
61 1 2.518088649 4.361454643 8.288318036 0.0 0.0 0.0 0.000129061394361 -0.000202551646059 0.000136835991111
62 1 9.95489802 4.361454643 8.288318036 0.0 0.0 0.0 -9.00210887849e-05 -7.90850970497e-05 9.89050447697e-05
63 1 6.236493263 10.801919957 8.288318036 0.0 0.0 0.0 -7.29178730918e-06 -1.5210833673e-05 7.69201347186e-05
64 1 13.673302635 10.801919957 8.288318036 0.0 0.0 0.0 -0.000129394309015 0.00069341733111 0.000236674386177
65 1 16.959856167 3.613473172 0.07296928 0.0 0.0 0.0 -3.03402932957e-05 -6.29062058333e-05 -7.47831050387e-05
66 1 9.523046796 3.613473172 0.07296928 0.0 0.0 0.0 -2.60107779211e-05 -6.03073008916e-05 -5.65228140505e-05
67 1 20.678260782 10.053938486 0.07296928 0.0 0.0 0.0 -2.74011620376e-05 -6.05998831837e-05 6.0281064565e-06
68 1 13.24145141 10.053938486 0.07296928 0.0 0.0 0.0 -3.10515034016e-05 -5.8744038194e-05 -7.2165894818e-05
69 1 16.959856211 3.613473164 7.00981942 0.0 0.0 0.0 -1.1900745962e-05 -6.17207480251e-05 0.000360687310931
70 1 9.523046839 3.613473164 7.00981942 0.0 0.0 0.0 -4.26840921135e-05 -6.91878526666e-05 0.000261659054809
71 1 20.678260825 10.053938478 7.00981942 0.0 0.0 0.0 -3.03357820737e-05 -6.24852894711e-05 0.000108760228237
72 1 13.241451453 10.053938478 7.00981942 0.0 0.0 0.0 -9.58662746768e-06 -0.000172212022152 0.000283160831104
73 2 5.098138192 9.1e-08 3.848820961 0.0 0.0 0.0 0.000845954711238 0.00182078673524 0.00243678161519
74 2 12.534947564 9.1e-08 3.848820961 0.0 0.0 0.0 -6.96854862219e-05 1.49381265964e-05 -1.40000773877e-05
75 2 8.816542806 6.440465404 3.848820961 0.0 0.0 0.0 -8.03088109325e-05 -8.37409532514e-05 -1.32777131752e-05
76 2 16.253352178 6.440465404 3.848820961 0.0 0.0 0.0 8.12401060124e-06 -3.78074128282e-05 -1.39225162297e-05
77 2 5.098138235 8.3e-08 10.785671101 0.0 0.0 0.0 -0.000251019086836 -0.000458457609551 0.00134423873771
78 2 12.534947607 8.3e-08 10.785671101 0.0 0.0 0.0 1.55794506973e-06 -1.48487159137e-05 5.08085035693e-05
79 2 8.816542849 6.440465397 10.785671101 0.0 0.0 0.0 9.7451155314e-06 6.61624058881e-05 5.97730149027e-05
80 2 16.253352221 6.440465397 10.785671101 0.0 0.0 0.0 -6.31026767676e-05 2.89694840159e-05 5.21577725663e-05
81 1 12.472986142 12.880930033 4.819894401 0.0 0.0 0.0 -0.00194115992429 -0.00425469670499 -0.00205592407359
82 1 19.909795513 12.880930033 4.819894401 0.0 0.0 0.0 -2.8365486296e-05 -4.53877449465e-06 7.81519763052e-05
83 1 8.754581528 6.440464719 4.819894401 0.0 0.0 0.0 -2.01349308709e-05 3.65540254879e-05 8.41478631291e-05
84 1 16.191390899 6.440464719 4.819894401 0.0 0.0 0.0 -5.93397330822e-05 2.05049620642e-05 7.99816158609e-05
85 1 12.472986185 12.880930026 11.756744541 0.0 0.0 0.0 -2.70092623698e-05 5.4165421623e-05 -0.000317988137727
86 1 19.909795557 12.880930026 11.756744541 0.0 0.0 0.0 -4.9144017037e-05 6.33097913023e-06 -2.07123982814e-05
87 1 8.754581571 6.440464712 11.756744541 0.0 0.0 0.0 -5.37028978495e-05 -1.67175065664e-05 -2.65398404221e-05
88 1 16.191390943 6.440464712 11.756744541 0.0 0.0 0.0 -3.13693707377e-05 -8.38844016438e-06 -2.27655254783e-05
89 1 4.172478132 1.2e-08 3.541396305 0.0 0.0 0.0 -0.000508145329933 -0.000251657923559 -0.000376259943296
90 1 11.609287504 1.2e-08 3.541396305 0.0 0.0 0.0 -3.05337549096e-06 -1.24564401563e-05 4.1348969259e-05
91 1 7.890882746 6.440465326 3.541396305 0.0 0.0 0.0 -4.06832483591e-05 6.57306671443e-05 3.9888257484e-05
92 1 15.327692118 6.440465326 3.541396305 0.0 0.0 0.0 -7.82555727563e-05 -2.78409259413e-06 4.73438341528e-05
93 1 4.172478175 5e-09 10.478246445 0.0 0.0 0.0 0.000364434139873 0.000297381971787 -0.000584531104203
94 1 11.609287547 5e-09 10.478246445 0.0 0.0 0.0 -0.000126737529578 1.13331848836e-05 3.97061291828e-05
95 1 7.890882789 6.440465319 10.478246445 0.0 0.0 0.0 -9.1222343233e-05 -6.32748493409e-05 3.81630562169e-05
96 1 15.327692161 6.440465319 10.478246445 0.0 0.0 0.0 -5.45744915699e-05 1.88784734718e-06 4.95340210398e-05
97 2 12.324550744 4.415115375 3.848820709 0.0 0.0 0.0 -5.86702975728e-06 -4.54660442557e-05 -1.02891745076e-05
98 2 4.887741372 4.415115375 3.848820709 0.0 0.0 0.0 0.000113973466089 -0.000804307889092 0.000237908887701
99 2 16.042955358 10.855580689 3.848820709 0.0 0.0 0.0 -0.000250583766754 0.000248695326995 4.97625801624e-05
100 2 8.606145986 10.855580689 3.848820709 0.0 0.0 0.0 0.000168660683986 0.000105649253634 4.50103499812e-06
101 2 12.324550787 4.415115367 10.785670849 0.0 0.0 0.0 2.93659577988e-05 -4.57781385437e-06 4.42710411056e-05
102 2 4.887741415 4.415115367 10.785670849 0.0 0.0 0.0 -4.33347830925e-05 0.000413135182112 0.000363733333668
103 2 16.042955401 10.855580681 10.785670849 0.0 0.0 0.0 0.000204669468158 -0.000213852624863 0.000169747096834
104 2 8.606146029 10.855580681 10.785670849 0.0 0.0 0.0 -0.000124305289479 -0.000131203914494 9.49941647155e-05
105 1 12.355530592 4.361455296 4.81989398 0.0 0.0 0.0 3.15986358185e-05 -2.4953052777e-05 7.50147123282e-05
106 1 4.91872122 4.361455296 4.81989398 0.0 0.0 0.0 -4.55287505081e-05 0.00047718998523 0.000162101261625
107 1 16.073935206 10.801920609 4.81989398 0.0 0.0 0.0 0.000186275407555 -0.000198420427606 0.000130251328243
108 1 8.637125834 10.801920609 4.81989398 0.0 0.0 0.0 -5.59508478736e-05 -9.77352556847e-05 0.000101159937258
109 1 12.355530635 4.361455288 11.75674412 0.0 0.0 0.0 1.73238360004e-05 -3.96909731757e-05 -7.99858995001e-06
110 1 4.918721263 4.361455288 11.75674412 0.0 0.0 0.0 3.61632051764e-05 -0.000123667600972 -0.000139650368863
111 1 16.073935249 10.801920602 11.75674412 0.0 0.0 0.0 -3.01758026519e-05 1.7329160351e-05 -8.32762772432e-05
112 1 8.637125877 10.801920602 11.75674412 0.0 0.0 0.0 6.47485794727e-05 -3.2343268932e-06 -4.45446238413e-05
113 1 12.787381758 3.613470486 3.541396271 0.0 0.0 0.0 2.84220229049e-05 -4.19483122314e-05 5.01360257172e-05
114 1 5.350572387 3.613470486 3.541396271 0.0 0.0 0.0 3.66358227582e-05 0.00043013182969 -0.000328630691382
115 1 16.505786372 10.0539358 3.541396271 0.0 0.0 0.0 7.73295396175e-05 -0.000110088725547 3.45652517552e-05
116 1 9.068977001 10.0539358 3.541396271 0.0 0.0 0.0 -2.00569892989e-05 -0.000113445385994 3.62451905928e-05
117 1 12.787381802 3.613470479 10.478246411 0.0 0.0 0.0 2.99932346481e-05 -6.62704960189e-05 5.007297558e-05
118 1 5.35057243 3.613470479 10.478246411 0.0 0.0 0.0 2.59573418395e-05 -0.000465520753683 -0.000288031560329
119 1 16.505786416 10.053935793 10.478246411 0.0 0.0 0.0 -2.84986864731e-05 1.03486377556e-05 4.09933321474e-05
120 1 9.068977044 10.053935793 10.478246411 0.0 0.0 0.0 8.62734368539e-05 1.08744431157e-05 4.06792978931e-05
121 2 16.042954883 2.025349614 3.848821218 0.0 0.0 0.0 0.000423885767684 -7.86305761613e-05 6.40259381441e-05
122 2 8.606145512 2.025349614 3.848821218 0.0 0.0 0.0 -0.000686082814242 -0.000239279199492 0.000215055024966
123 2 19.761359497 8.465814928 3.848821218 0.0 0.0 0.0 7.3319846996e-06 -7.07886177498e-06 -1.03812006323e-05
124 2 12.324550126 8.465814928 3.848821218 0.0 0.0 0.0 3.94176365506e-05 0.000211048967931 1.79761062673e-06
125 2 16.042954927 2.025349607 10.785671358 0.0 0.0 0.0 -0.000266927586674 9.96913216174e-05 0.00018900235958
126 2 8.606145555 2.025349607 10.785671358 0.0 0.0 0.0 0.000413442714536 0.000174986371631 0.000344220263727
127 2 19.761359541 8.46581492 10.785671358 0.0 0.0 0.0 2.03148435143e-05 5.15157110075e-05 4.44090478821e-05
128 2 12.324550169 8.46581492 10.785671358 0.0 0.0 0.0 -4.00900635684e-06 -0.000141063037576 8.9399239204e-05
129 1 16.07393341 2.079010738 4.819894452 0.0 0.0 0.0 -0.000206588866318 8.57709958136e-05 0.000135272115556
130 1 8.637124038 2.079010738 4.819894452 0.0 0.0 0.0 0.000544309863336 0.000219374290977 0.000150657201751
131 1 19.792338024 8.519476052 4.819894452 0.0 0.0 0.0 3.04851185759e-05 4.55178485099e-05 7.58238213764e-05
132 1 12.355528653 8.519476052 4.819894452 0.0 0.0 0.0 1.55337693313e-05 -5.39691278381e-05 9.72560036911e-05
133 1 16.073933453 2.079010731 11.756744592 0.0 0.0 0.0 9.82497349974e-05 1.35208418128e-05 -8.44577989716e-05
134 1 8.637124082 2.079010731 11.756744592 0.0 0.0 0.0 -6.23870664638e-05 -5.24113149758e-07 -0.000148277333882
135 1 19.792338067 8.519476045 11.756744592 0.0 0.0 0.0 2.57902966024e-05 2.08755867541e-05 -8.6735250715e-06
136 1 12.355528696 8.519476045 11.756744592 0.0 0.0 0.0 3.26922799374e-05 7.69479958936e-05 -3.85311391308e-05
137 1 1.632167798 2.826994038 3.541396624 0.0 0.0 0.0 -0.000151691096187 0.000156859161768 -2.44569518192e-05
138 1 9.06897717 2.826994038 3.541396624 0.0 0.0 0.0 0.000166400046858 0.000148548529637 -2.99470999633e-06
139 1 5.350572412 9.267459352 3.541396624 0.0 0.0 0.0 2.93023789059e-05 5.61736257196e-05 5.11878227584e-05
140 1 12.787381784 9.267459352 3.541396624 0.0 0.0 0.0 1.63763491705e-05 -0.000100572619873 1.14399630566e-05
141 1 1.632167841 2.826994031 10.478246764 0.0 0.0 0.0 0.000201920322548 -3.94764887821e-05 -2.33221244697e-05
142 1 9.068977213 2.826994031 10.478246764 0.0 0.0 0.0 -0.000132922546984 -3.93855722662e-05 -4.83291880295e-06
143 1 5.350572456 9.267459345 10.478246764 0.0 0.0 0.0 2.57261217778e-05 5.59209652393e-05 5.27143243568e-05
144 1 12.787381827 9.267459345 10.478246764 0.0 0.0 0.0 3.41624702316e-05 0.000221495316316 6.93087209484e-06
145 2 12.258736453 12.880930313 6.469757221 0.0 0.0 0.0 -0.0880177396997 -0.103820136694 -0.0748718710242
146 2 19.695545825 12.880930313 6.469757221 0.0 0.0 0.0 -4.98890891185e-05 1.28925193161e-06 -0.000194393471733
147 2 8.540331839 6.440464999 6.469757221 0.0 0.0 0.0 -5.14886977363e-05 -1.22535746725e-05 -0.000217720681512
148 2 15.97714121 6.440464999 6.469757221 0.0 0.0 0.0 -3.9347784364e-05 -5.83123168231e-06 -0.000197979684753
149 2 12.258736496 12.880930306 13.40660736 0.0 0.0 0.0 -5.21137723516e-05 -1.63516659866e-05 0.000518772935961
150 2 19.695545868 12.880930306 13.40660736 0.0 0.0 0.0 -4.19483777537e-05 -1.94212238646e-06 7.37336809624e-05
151 2 8.540331882 6.440464992 13.40660736 0.0 0.0 0.0 -4.13190027752e-05 4.73575584637e-06 8.55813258385e-05
152 2 15.977141254 6.440464992 13.40660736 0.0 0.0 0.0 -4.738384428e-05 1.71452664791e-06 7.56040722596e-05
153 1 5.331166141 0.766954845 6.778243965 0.0 0.0 0.0 0.0745583194543 0.0884528589971 0.0731006837388
154 1 12.767975512 0.766954845 6.788243965 0.0 0.0 0.0 -6.32619194429e-05 1.79572945425e-05 4.91592749877e-05
155 1 9.049570755 7.207420159 6.788243965 0.0 0.0 0.0 -6.39022750694e-05 1.26757789536e-05 4.02032599903e-05
156 1 16.486380127 7.207420159 6.788243965 0.0 0.0 0.0 -5.92178953586e-05 1.51578023472e-05 4.77598661377e-05
157 1 5.331166184 0.766954838 13.725094105 0.0 0.0 0.0 -6.42074775668e-05 1.09894344809e-05 -0.000333423047478
158 1 12.767975556 0.766954838 13.725094105 0.0 0.0 0.0 -6.02567338488e-05 1.65862438876e-05 -8.56195518579e-05
159 1 9.049570798 7.207420151 13.725094105 0.0 0.0 0.0 -5.99944953806e-05 1.92192668919e-05 -8.10628054736e-05
160 1 16.48638017 7.207420151 13.725094105 0.0 0.0 0.0 -6.23487065022e-05 1.80443549942e-05 -8.48901125452e-05
161 1 16.486380702 5.673510068 6.788243516 0.0 0.0 0.0 -6.1493918841e-05 -1.62638007583e-05 8.62561127881e-05
162 1 9.04957133 5.673510068 6.788243516 0.0 0.0 0.0 -6.18538679226e-05 -1.87708870131e-05 8.62624934341e-05
163 1 20.204785316 12.113975382 6.788243516 0.0 0.0 0.0 -6.33869269901e-05 -1.72499630108e-05 4.3076298998e-05
164 1 12.767975944 12.113975382 6.788243516 0.0 0.0 0.0 0.010308548214 0.010332664194 0.00830109700414
165 1 16.486380745 5.673510061 13.725093655 0.0 0.0 0.0 -6.13788016996e-05 -1.77005317577e-05 -9.87967722477e-05
166 1 9.049571373 5.673510061 13.725093655 0.0 0.0 0.0 -6.12109877164e-05 -1.65247500269e-05 -9.87973810175e-05
167 1 20.204785359 12.113975375 13.725093655 0.0 0.0 0.0 -6.03645161077e-05 -1.7236414694e-05 -7.76193598426e-05
168 1 12.767975987 12.113975375 13.725093655 0.0 0.0 0.0 -6.43151438315e-05 -1.75540287983e-05 -0.000259916199774
169 2 12.462655523 4.175912014 6.46975888 0.0 0.0 0.0 1.49358837528e-05 -4.38669790926e-05 -0.000171480549524
170 2 5.025846151 4.175912014 6.46975888 0.0 0.0 0.0 4.56759532008e-05 -0.000307308410508 -0.0011830968684
171 2 16.181060137 10.616377328 6.46975888 0.0 0.0 0.0 -6.416938656e-05 2.9577423864e-05 -0.000515178912552
172 2 8.744250765 10.616377328 6.46975888 0.0 0.0 0.0 6.91085726278e-05 -4.63474490474e-06 -0.000300909007952
173 2 12.462655566 4.175912007 13.406609019 0.0 0.0 0.0 1.8825118404e-05 -3.94874572493e-05 4.92912231933e-05
174 2 5.025846194 4.175912007 13.406609019 0.0 0.0 0.0 1.41393768741e-05 -1.04737369566e-05 0.000286121153223
175 2 16.18106018 10.616377321 13.406609019 0.0 0.0 0.0 3.59376756881e-05 -5.71932087873e-05 0.000176572416346
176 2 8.744250808 10.616377321 13.406609019 0.0 0.0 0.0 1.22565801532e-06 -5.25198479696e-05 0.000118589337188
177 1 4.107023344 4.233448053 6.788243333 0.0 0.0 0.0 1.6187760526e-05 -9.25969408818e-05 0.000469612665586
178 1 11.543832716 4.233448053 6.788243333 0.0 0.0 0.0 1.43751711389e-05 -6.16306693047e-05 5.28967383885e-05
179 1 7.825427958 10.673913367 6.788243333 0.0 0.0 0.0 1.39270838095e-05 -5.91711149237e-05 5.77915388307e-05
180 1 15.26223733 10.673913367 6.788243333 0.0 0.0 0.0 3.55000167207e-05 -7.5389530379e-05 0.000361951285962
181 1 4.107023387 4.233448046 13.725093473 0.0 0.0 0.0 1.45261749602e-05 -5.98662665739e-05 -0.000178908288433
182 1 11.543832759 4.233448046 13.725093473 0.0 0.0 0.0 1.42158562278e-05 -6.10659949096e-05 -8.00966008277e-05
183 1 7.825428001 10.67391336 13.725093473 0.0 0.0 0.0 1.44518272718e-05 -6.19142354949e-05 -8.32654340729e-05
184 1 15.262237373 10.67391336 13.725093473 0.0 0.0 0.0 1.34208614044e-05 -6.10448604193e-05 -0.000164570743012
185 1 12.872237203 5.00040447 6.78824545 0.0 0.0 0.0 4.65937728752e-05 -5.16512532123e-05 2.46412818005e-05
186 1 5.435427832 5.00040447 6.78824545 0.0 0.0 0.0 5.37801513119e-05 -9.11458554667e-05 0.000209073260456
187 1 16.590641818 11.440869783 6.78824545 0.0 0.0 0.0 5.02107966581e-05 -4.29238359513e-05 0.000229338731131
188 1 9.153832446 11.440869783 6.78824545 0.0 0.0 0.0 1.08521607433e-05 -6.3696962742e-05 0.000209288646334
189 1 12.872237247 5.000404462 13.72509559 0.0 0.0 0.0 4.7657136864e-05 -4.97935598361e-05 -7.76040301622e-05
190 1 5.435427875 5.000404462 13.72509559 0.0 0.0 0.0 4.62839206026e-05 -4.81070776981e-05 -0.000152972283628
191 1 16.590641861 11.440869776 13.72509559 0.0 0.0 0.0 4.65773029934e-05 -5.22098252012e-05 -0.000148804306447
192 1 9.153832489 11.440869776 13.72509559 0.0 0.0 0.0 4.93436758036e-05 -5.04526751385e-05 -0.000152964097729
193 2 1.307441393 2.264553585 6.469759523 0.0 0.0 0.0 0.00012896343631 4.15449067802e-06 -0.000573230976822
194 2 8.744250764 2.264553585 6.469759523 0.0 0.0 0.0 -0.000215272478857 -5.23430344556e-05 -0.00111008713387
195 2 5.025846007 8.705018899 6.469759523 0.0 0.0 0.0 1.42935692696e-05 3.85484414334e-05 -0.000172200399119
196 2 12.462655379 8.705018899 6.469759523 0.0 0.0 0.0 1.94490796503e-05 0.000102729559616 -0.000285608554452
197 2 1.307441436 2.264553578 13.406609663 0.0 0.0 0.0 -8.89194280172e-06 5.07673621673e-05 0.000189377600206
198 2 8.744250808 2.264553578 13.406609663 0.0 0.0 0.0 4.33433192469e-05 5.42248600799e-05 0.000276968626816
199 2 5.02584605 8.705018892 13.406609663 0.0 0.0 0.0 1.57304567028e-05 4.49616953662e-05 4.95830044457e-05
200 2 12.462655422 8.705018892 13.406609663 0.0 0.0 0.0 1.38367251127e-05 2.33100946824e-05 0.000113574533503
201 1 1.717022388 1.440060952 6.788246651 0.0 0.0 0.0 2.50893573555e-05 6.5541164394e-05 0.000457592374594
202 1 9.15383176 1.440060952 6.788246651 0.0 0.0 0.0 2.07649089835e-05 4.04650180898e-05 0.000349626830384
203 1 5.435427002 7.880526266 6.788246651 0.0 0.0 0.0 4.73966269894e-05 5.19927657284e-05 4.07231386635e-05
204 1 12.872236374 7.880526266 6.788246651 0.0 0.0 0.0 4.97371079875e-05 5.19181422786e-05 4.56180194505e-05
205 1 1.717022431 1.440060945 13.725096791 0.0 0.0 0.0 4.82305727283e-05 5.15252389222e-05 -0.000191071755036
206 1 9.153831803 1.440060945 13.725096791 0.0 0.0 0.0 4.90418041676e-05 5.30602002069e-05 -0.00017674497159
207 1 5.435427045 7.880526258 13.725096791 0.0 0.0 0.0 4.79911957429e-05 5.25019937999e-05 -9.22767229705e-05
208 1 12.872236417 7.880526258 13.725096791 0.0 0.0 0.0 4.71427866275e-05 5.23212155204e-05 -9.54446071093e-05
209 1 15.262237079 2.207018097 6.788243067 0.0 0.0 0.0 2.41853995515e-05 5.69928082998e-05 9.46305920204e-05
210 1 7.825427708 2.207018097 6.788243067 0.0 0.0 0.0 -1.6652082244e-06 6.62892608628e-05 0.00134487400331
211 1 18.980641693 8.647483411 6.788243067 0.0 0.0 0.0 1.27249762742e-05 5.83881807767e-05 4.63420597875e-05
212 1 11.543832322 8.647483411 6.788243067 0.0 0.0 0.0 8.54789147542e-06 4.86921935892e-05 9.46831114614e-05
213 1 15.262237122 2.207018089 13.725093207 0.0 0.0 0.0 1.07997769507e-05 5.94444239591e-05 -9.76564368206e-05
214 1 7.825427751 2.207018089 13.725093207 0.0 0.0 0.0 1.33824224761e-05 5.82897500974e-05 -0.000238365168627
215 1 18.980641736 8.647483403 13.725093207 0.0 0.0 0.0 1.19518027486e-05 6.00784822077e-05 -7.09302545892e-05
216 1 11.543832365 8.647483403 13.725093207 0.0 0.0 0.0 1.29332361549e-05 6.03850124184e-05 -9.76553015991e-05
217 2 10.05169036 12.880930562 3.001331049 0.0 0.0 0.0 0.000545368949986 0.000219127125991 0.000336903727526
218 2 17.488499731 12.880930562 3.001331049 0.0 0.0 0.0 -0.000232036742659 6.56536605e-05 9.21760199934e-05
219 2 6.333285745 6.440465248 3.001331049 0.0 0.0 0.0 2.64855679947e-05 -0.000166220344306 2.06709573264e-05
220 2 13.770095117 6.440465248 3.001331049 0.0 0.0 0.0 5.80319536685e-05 2.81608842658e-05 -1.85523212011e-05
221 2 10.051690403 12.880930555 9.938181189 0.0 0.0 0.0 -0.000693230881775 -0.000282802663804 0.000305682174622
222 2 17.488499774 12.880930555 9.938181189 0.0 0.0 0.0 0.000385910260874 -7.2567873249e-05 2.40908107966e-05
223 2 6.333285789 6.440465241 9.938181189 0.0 0.0 0.0 7.47879262656e-05 0.000187489446236 -2.88075991305e-05
224 2 13.77009516 6.440465241 9.938181189 0.0 0.0 0.0 4.04665907692e-05 -2.92681513454e-05 -5.3100175182e-05
225 1 13.26085702 5.67351034 3.319819519 0.0 0.0 0.0 5.68154188073e-05 -1.55163715894e-05 -3.17696496735e-05
226 1 5.824047648 5.67351034 3.319819519 0.0 0.0 0.0 7.46679247301e-05 0.000149775171801 -8.10614003757e-05
227 1 16.979261634 12.113975653 3.319819519 0.0 0.0 0.0 0.000218331420408 -9.87712239068e-05 -9.01637225212e-05
228 1 9.542452262 12.113975653 3.319819519 0.0 0.0 0.0 -9.70877160741e-05 -0.00013837471792 -8.88165430594e-05
229 1 13.260857063 5.673510332 10.256669659 0.0 0.0 0.0 6.57819680808e-05 -1.92369135654e-05 -3.14267956021e-05
230 1 5.824047691 5.673510332 10.256669659 0.0 0.0 0.0 4.80042041828e-05 -0.000183949848345 -8.11342267275e-05
231 1 16.979261677 12.113975646 10.256669659 0.0 0.0 0.0 -9.50201570793e-05 6.37433407849e-05 -9.0242610098e-05
232 1 9.542452305 12.113975646 10.256669659 0.0 0.0 0.0 0.000218755709637 0.000102990912719 -8.90311917998e-05
233 1 2.105642892 0.766955018 3.319818703 0.0 0.0 0.0 -0.000235734825147 4.53005447867e-06 -0.000179548958043
234 1 9.542452263 0.766955018 3.319818703 0.0 0.0 0.0 0.00028602088119 1.55676232585e-05 -0.000117414292789
235 1 5.824047506 7.207420332 3.319818703 0.0 0.0 0.0 6.07653968567e-05 6.17293184189e-05 -3.01989127719e-05
236 1 13.260856878 7.207420332 3.319818703 0.0 0.0 0.0 6.02199896101e-05 -2.39727677837e-05 -3.31081445639e-05
237 1 2.105642935 0.766955011 10.256668843 0.0 0.0 0.0 0.000354676314228 4.60907609658e-06 -0.000179521277283
238 1 9.542452307 0.766955011 10.256668843 0.0 0.0 0.0 -0.000164030217847 1.56246987875e-05 -0.000117535917011
239 1 5.824047549 7.207420325 10.256668843 0.0 0.0 0.0 6.07288566242e-05 -2.3845587213e-05 -3.28522137619e-05
240 1 13.260856921 7.207420325 10.256668843 0.0 0.0 0.0 6.01648597702e-05 6.16922503045e-05 -2.99473448877e-05
241 2 13.566178647 2.264553318 3.001331607 0.0 0.0 0.0 2.79221811563e-05 2.46035682514e-05 -1.24955975918e-05
242 2 6.129369276 2.264553318 3.001331607 0.0 0.0 0.0 -0.000427686327453 -0.000576496425375 0.00132810326985
243 2 17.284583261 8.705018632 3.001331607 0.0 0.0 0.0 -5.60347625447e-05 6.69293090752e-05 -1.44760156592e-05
244 2 9.84777389 8.705018632 3.001331607 0.0 0.0 0.0 1.8545964225e-05 0.000117257895268 -5.82998248077e-06
245 2 13.56617869 2.26455331 9.938181747 0.0 0.0 0.0 -7.94123180506e-05 5.87199016633e-05 -5.20757038486e-05
246 2 6.129369319 2.26455331 9.938181747 0.0 0.0 0.0 0.000671652128154 0.00111650490475 0.00171427613347
247 2 17.284583305 8.705018624 9.938181747 0.0 0.0 0.0 1.43678913799e-05 1.11571296784e-05 -5.32360930039e-05
248 2 9.847773933 8.705018624 9.938181747 0.0 0.0 0.0 -7.26602398538e-05 -5.08325689449e-05 -5.5145025726e-05
249 1 14.485000752 2.20701716 3.319818255 0.0 0.0 0.0 -9.12275487853e-05 7.6931509904e-05 -4.32797486956e-05
250 1 7.048191381 2.20701716 3.319818255 0.0 0.0 0.0 0.000413267780322 0.000336844673796 -0.00046133533751
251 1 18.203405367 8.647482473 3.319818255 0.0 0.0 0.0 -4.31155594977e-06 6.48192571963e-05 -2.99673684885e-05
252 1 10.766595995 8.647482473 3.319818255 0.0 0.0 0.0 -4.06791475274e-05 -8.23673481162e-06 -4.1886929575e-05
253 1 14.485000796 2.207017152 10.256668395 0.0 0.0 0.0 6.14965924403e-05 4.39367991102e-05 -4.13630752612e-05
254 1 7.048191424 2.207017152 10.256668395 0.0 0.0 0.0 -0.000416766429687 -0.000157190583925 -0.000377020780539
255 1 18.20340541 8.647482466 10.256668395 0.0 0.0 0.0 -2.72084182091e-05 5.67375431537e-05 -3.03971975371e-05
256 1 10.766596038 8.647482466 10.256668395 0.0 0.0 0.0 1.16789387053e-05 0.000138182428146 -3.78113653329e-05
257 1 5.719786092 1.440061854 3.319818129 0.0 0.0 0.0 4.95372720239e-05 0.000198564127978 -0.00132924369247
258 1 13.156595464 1.440061854 3.319818129 0.0 0.0 0.0 -4.78311737972e-05 4.49553971021e-05 -2.93857014525e-05
259 1 9.438190706 7.880527168 3.319818129 0.0 0.0 0.0 -4.55142318804e-05 4.22602922376e-05 -2.76342650319e-05
260 1 16.875000078 7.880527168 3.319818129 0.0 0.0 0.0 -4.22051283217e-05 4.17984573859e-05 -2.95529088396e-05
261 1 5.719786135 1.440061847 10.256668269 0.0 0.0 0.0 -0.000128901219476 -0.00011037507298 -0.00131627926143
262 1 13.156595507 1.440061847 10.256668269 0.0 0.0 0.0 -4.11730230414e-05 4.36906298177e-05 -2.92704251941e-05
263 1 9.438190749 7.880527161 10.256668269 0.0 0.0 0.0 -4.32011204709e-05 4.63352011515e-05 -2.73412372842e-05
264 1 16.875000121 7.880527161 10.256668269 0.0 0.0 0.0 -4.66817734587e-05 4.69815760547e-05 -2.91103219991e-05
265 2 2.410964342 4.175911908 3.001332195 0.0 0.0 0.0 0.000186836757579 -0.000274657872414 0.000102499846997
266 2 9.847773713 4.175911908 3.001332195 0.0 0.0 0.0 -0.000151995744689 -0.000139205842665 1.36478577338e-05
267 2 6.129368956 10.616377222 3.001332195 0.0 0.0 0.0 3.84643520458e-06 -1.95777064586e-05 -2.24312549317e-05
268 2 13.566178327 10.616377222 3.001332195 0.0 0.0 0.0 -9.61605072593e-05 0.000466183600365 0.00029036576794
269 2 2.410964385 4.175911901 9.938182334 0.0 0.0 0.0 -0.00026790304294 0.000238831823464 3.28014668483e-05
270 2 9.847773757 4.175911901 9.938182334 0.0 0.0 0.0 0.000124391678638 6.60533516057e-05 -3.50723915139e-05
271 2 6.129368999 10.616377215 9.938182334 0.0 0.0 0.0 -4.92320883692e-05 -6.65421089899e-05 -5.72873458402e-05
272 2 13.566178371 10.616377215 9.938182334 0.0 0.0 0.0 0.000122796745458 -0.000780091289619 0.000251033928919