ITEM: TIMESTEP
0
ITEM: NUMBER OF ATOMS
288
ITEM: BOX BOUNDS xy xz yz xx yy zz
0.0 14.873618743 7.436809228
0.0 12.880930628 8.6e-08
0.0 13.87370028 -1.5e-08
ITEM: ATOMS id type x y z vx vy vz fx fy fz
1 2 2.338671397 1.12e-07 0.380392751 0.0 0.0 0.0 4.86232256973e-05 -8.16634920856e-05 6.30730637766e-05
2 2 9.775480768 1.12e-07 0.380392751 0.0 0.0 0.0 3.74435235559e-05 -7.89383094557e-05 3.98380867451e-06
3 2 6.057076011 6.440465426 0.380392751 0.0 0.0 0.0 3.15398037871e-05 9.46263961739e-05 -1.27347861754e-05
4 2 13.493885382 6.440465426 0.380392751 0.0 0.0 0.0 2.32955141204e-05 6.70925916223e-05 1.98139480839e-05
5 2 2.33867144 1.04e-07 7.317242891 0.0 0.0 0.0 0.00266909499334 0.000117187305673 -0.000528331348101
6 2 9.775480812 1.04e-07 7.317242891 0.0 0.0 0.0 0.000276253852264 -0.000457839254516 6.54512981432e-05
7 2 6.057076054 6.440465418 7.317242891 0.0 0.0 0.0 6.09887603368e-05 0.000590415684977 8.62521010896e-05
8 2 13.493885426 6.440465418 7.317242891 0.0 0.0 0.0 7.31525550383e-06 0.000204060558937 9.76745679949e-06
9 1 2.400632363 4.61e-07 1.351465958 0.0 0.0 0.0 1.54599473488e-05 4.65627400812e-05 -4.37820432526e-05
10 1 9.837441735 4.61e-07 1.351465958 0.0 0.0 0.0 3.614229375e-05 5.09714409818e-05 5.91370825101e-05
11 1 6.119036977 6.440465774 1.351465958 0.0 0.0 0.0 4.15868696144e-05 -6.30676576125e-05 8.25107069282e-05
12 1 13.555846349 6.440465774 1.351465958 0.0 0.0 0.0 4.28596074579e-05 -4.21108401229e-05 2.98324713262e-05
13 1 2.400632406 4.53e-07 8.288316098 0.0 0.0 0.0 -0.000574289083187 0.000123219234682 0.000605933579647
14 1 9.837441778 4.53e-07 8.288316098 0.0 0.0 0.0 -4.63683912109e-05 0.000197209210043 -2.92695361947e-05
15 1 6.11903702 6.440465767 8.288316098 0.0 0.0 0.0 3.59358948792e-05 -0.000240868584764 -5.14703590155e-05
16 1 13.555846392 6.440465767 8.288316098 0.0 0.0 0.0 4.76778824088e-05 -9.59694994906e-05 5.14116842456e-05
17 1 10.701141082 12.880930558 0.072968506 0.0 0.0 0.0 7.60830685101e-05 5.49253010781e-05 5.34493505504e-05
18 1 18.137950453 12.880930558 0.072968506 0.0 0.0 0.0 4.22699769361e-05 2.53136913464e-05 5.49305950606e-05
19 1 6.982736468 6.440465244 0.072968506 0.0 0.0 0.0 4.29783328537e-05 -5.13777975551e-05 5.62121470512e-05
20 1 14.419545839 6.440465244 0.072968506 0.0 0.0 0.0 7.81905867159e-05 -2.38029275776e-05 5.62891888778e-05
21 1 10.701141125 12.880930551 7.009818646 0.0 0.0 0.0 -0.00417841671961 -0.00168898612815 4.88954263797e-05
22 1 18.137950497 12.880930551 7.009818646 0.0 0.0 0.0 -4.52110488076e-05 9.52400347119e-05 5.92812147881e-05
23 1 6.982736511 6.440465237 7.009818646 0.0 0.0 0.0 -3.48055508361e-05 -0.000291589859631 5.33412404849e-05
24 1 14.419545882 6.440465237 7.009818646 0.0 0.0 0.0 0.000112427548199 -7.91054371003e-05 5.34518783947e-05
25 2 13.704282012 2.025348059 0.380394512 0.0 0.0 0.0 4.51225635774e-05 -5.25450432043e-06 9.7602135779e-06
26 2 6.26747264 2.025348059 0.380394512 0.0 0.0 0.0 -9.15610578103e-05 -0.000110601219854 -3.65577348609e-05
27 2 17.422686626 8.465813373 0.380394512 0.0 0.0 0.0 -7.06310026091e-05 6.58085920017e-05 8.68098425455e-06
28 2 9.985877254 8.465813373 0.380394512 0.0 0.0 0.0 4.96242391613e-05 0.000141763445613 2.17526762471e-05
29 2 13.704282055 2.025348052 7.317244652 0.0 0.0 0.0 0.000186112412189 -7.24969133528e-05 4.50121632267e-06
30 2 6.267472684 2.025348052 7.317244652 0.0 0.0 0.0 0.0100209522611 0.0149584012427 0.0111327384882
31 2 17.422686669 8.465813365 7.317244652 0.0 0.0 0.0 -0.000190394518003 0.000157392165908 6.64105600789e-06
32 2 9.985877298 8.465813365 7.317244652 0.0 0.0 0.0 0.000238868469745 0.000485034576467 -9.61075226299e-06
33 1 13.673300338 2.079010187 1.351467718 0.0 0.0 0.0 -5.05668660024e-05 4.87852934237e-05 2.78942029873e-05
34 1 6.236490966 2.079010187 1.351467718 0.0 0.0 0.0 3.89790785578e-05 0.000128063518507 0.000120609344619
35 1 17.391704952 8.519475501 1.351467718 0.0 0.0 0.0 1.90802175727e-05 4.11098410848e-06 3.09734779792e-05
36 1 9.95489558 8.519475501 1.351467718 0.0 0.0 0.0 -5.31884825357e-05 -4.24956959715e-05 6.92385438276e-06
37 1 13.673300381 2.07901018 8.288317858 0.0 0.0 0.0 -0.000104409721753 7.56196184026e-05 3.96723146303e-05
38 1 6.236491009 2.07901018 8.288317858 0.0 0.0 0.0 0.000431717279003 0.0013600216591 -0.00348736573915
39 1 17.391704995 8.519475493 8.288317858 0.0 0.0 0.0 6.25087337789e-05 -3.09297011757e-05 3.43407683418e-05
40 1 9.954895623 8.519475493 8.288317858 0.0 0.0 0.0 -0.000123967988941 -0.000174007912716 7.38791171126e-05
41 1 13.241451457 2.826992613 0.072968839 0.0 0.0 0.0 -5.83055408054e-05 6.5828937958e-05 5.59436183841e-05
42 1 5.804642085 2.826992613 0.072968839 0.0 0.0 0.0 5.79780152933e-06 0.000101677325863 5.51695236695e-05
43 1 16.959856071 9.267457927 0.072968839 0.0 0.0 0.0 -1.45300108748e-06 5.40590896197e-05 5.42491749822e-05
44 1 9.523046699 9.267457927 0.072968839 0.0 0.0 0.0 -6.49557851196e-05 1.55314741206e-05 5.59410769515e-05
45 1 13.2414515 2.826992606 7.009818978 0.0 0.0 0.0 -0.000117287644401 7.69047565708e-05 5.26224267584e-05
46 1 5.804642128 2.826992606 7.009818978 0.0 0.0 0.0 0.00137970969163 -0.00501351863677 0.00102184201085
47 1 16.959856114 9.26745792 7.009818978 0.0 0.0 0.0 9.1740850302e-05 2.15284970772e-05 5.61851250279e-05
48 1 9.523046743 9.26745792 7.009818978 0.0 0.0 0.0 -0.000209803881719 -0.000180101536336 4.58172819782e-05
49 2 17.422687622 4.415117298 0.380394729 0.0 0.0 0.0 -9.01704497819e-05 -6.389255752e-05 -3.92559474471e-06
50 2 9.985878251 4.415117298 0.380394729 0.0 0.0 0.0 6.60627768148e-05 1.78375764625e-05 -1.79333691487e-05
51 2 21.141092236 10.855582612 0.380394729 0.0 0.0 0.0 4.76006241374e-05 3.96999176666e-06 1.44140930922e-05
52 2 13.704282865 10.855582612 0.380394729 0.0 0.0 0.0 -9.67332994747e-05 -4.91065180408e-05 5.43978463939e-05
53 2 17.422687665 4.415117291 7.317244869 0.0 0.0 0.0 -0.00059362028262 -2.9227265923e-05 7.05095173623e-05
54 2 9.985878294 4.415117291 7.317244869 0.0 0.0 0.0 0.000469874536423 0.000267841011039 7.61286048766e-05
55 2 21.14109228 10.855582605 7.317244869 0.0 0.0 0.0 0.000183506267912 6.77606708628e-05 1.7175115794e-06
56 2 13.704282908 10.855582605 7.317244869 0.0 0.0 0.0 -0.00112601406853 0.00197295829817 -0.000402271890972
57 1 2.518088606 4.36145465 1.351467896 0.0 0.0 0.0 3.05535206121e-05 -7.53046051032e-06 5.69571449929e-05
58 1 9.954897977 4.36145465 1.351467896 0.0 0.0 0.0 -7.27761811888e-05 -5.8441823925e-05 7.36553800527e-05
59 1 6.23649322 10.801919964 1.351467896 0.0 0.0 0.0 -5.79608577394e-05 -4.4274349143e-05 2.23765847773e-05
60 1 13.673302591 10.801919964 1.351467896 0.0 0.0 0.0 3.78668522698e-05 -1.91298407677e-05 -4.66277438995e-05
61 1 2.518088649 4.361454643 8.288318036 0.0 0.0 0.0 0.000202903473865 -2.65097721729e-05 -4.50299048411e-05
62 1 9.95489802 4.361454643 8.288318036 0.0 0.0 0.0 -0.000208794546248 -0.000146587769255 -4.71617295478e-05
63 1 6.236493263 10.801919957 8.288318036 0.0 0.0 0.0 -0.000113502155194 -6.72390756371e-05 4.91157293196e-05
64 1 13.673302635 10.801919957 8.288318036 0.0 0.0 0.0 0.00046766911034 -0.000514837402688 0.000604233856637
65 1 16.959856167 3.613473172 0.07296928 0.0 0.0 0.0 -2.87668349719e-06 -2.61993613784e-05 5.29193241421e-05
66 1 9.523046796 3.613473172 0.07296928 0.0 0.0 0.0 -6.2346346428e-05 -6.16704576011e-05 5.71490028261e-05
67 1 20.678260782 10.053938486 0.07296928 0.0 0.0 0.0 -4.74168179623e-05 -8.74469963696e-05 5.64405186534e-05
68 1 13.24145141 10.053938486 0.07296928 0.0 0.0 0.0 -4.45412269263e-06 -8.10893196135e-05 5.64379988673e-05
69 1 16.959856211 3.613473164 7.00981942 0.0 0.0 0.0 0.000207318972377 0.000145968194846 6.20629531176e-05
70 1 9.523046839 3.613473164 7.00981942 0.0 0.0 0.0 -0.000449518539156 -0.000227335823204 4.08067135196e-05
71 1 20.678260825 10.053938478 7.00981942 0.0 0.0 0.0 -8.00520971493e-05 -0.000131010778746 5.19879708736e-05
72 1 13.241451453 10.053938478 7.00981942 0.0 0.0 0.0 -1.11128682563e-05 -0.000616447306095 -3.44170634876e-05
73 2 5.098138192 9.1e-08 3.848820961 0.0 0.0 0.0 -0.000472277989199 -0.000676778380678 0.00200359548654
74 2 12.534947564 9.1e-08 3.848820961 0.0 0.0 0.0 0.000111633899437 -6.3447615875e-05 9.37573138238e-07
75 2 8.816542806 6.440465404 3.848820961 0.0 0.0 0.0 0.000136787244551 0.000284102970578 -8.92903680245e-05
76 2 16.253352178 6.440465404 3.848820961 0.0 0.0 0.0 -0.000159752875447 8.85234777614e-05 -5.84910991386e-06
77 2 5.098138235 8.3e-08 10.785671101 0.0 0.0 0.0 -0.000291512492127 -0.000436395398487 -0.000499424690125
78 2 12.534947607 8.3e-08 10.785671101 0.0 0.0 0.0 7.68318636496e-05 -4.97749865016e-05 1.12276041326e-05
79 2 8.816542849 6.440465397 10.785671101 0.0 0.0 0.0 8.96864990326e-05 0.000204279334237 8.51437376557e-05
80 2 16.253352221 6.440465397 10.785671101 0.0 0.0 0.0 -0.000129072463461 6.55511767509e-05 1.68524394891e-05
81 1 12.472986142 12.880930033 4.819894401 0.0 0.0 0.0 0.000268079377145 -8.36476976964e-05 -0.00456393291758
82 1 19.909795513 12.880930033 4.819894401 0.0 0.0 0.0 -0.00013548645268 3.92275373883e-05 3.06911543223e-05
83 1 8.754581528 6.440464719 4.819894401 0.0 0.0 0.0 -0.000155237414017 -0.000186931381999 7.02244495429e-05
84 1 16.191390899 6.440464719 4.819894401 0.0 0.0 0.0 4.34554715854e-05 -5.7546789495e-05 3.6910212353e-05
85 1 12.472986185 12.880930026 11.756744541 0.0 0.0 0.0 1.83848057411e-05 0.000100262294457 8.09107777833e-05
86 1 19.909795557 12.880930026 11.756744541 0.0 0.0 0.0 -8.04237686041e-05 1.93556537249e-05 2.85437711324e-05
87 1 8.754581571 6.440464712 11.756744541 0.0 0.0 0.0 -8.30765121024e-05 -6.71177755289e-05 6.36056152643e-06
88 1 16.191390943 6.440464712 11.756744541 0.0 0.0 0.0 -5.4880342998e-06 -2.07000335397e-05 2.46686768935e-05
89 1 4.172478132 1.2e-08 3.541396305 0.0 0.0 0.0 -0.00017893868246 0.000130162413359 -0.000382872365963
90 1 11.609287504 1.2e-08 3.541396305 0.0 0.0 0.0 -0.000117123643849 4.67418688489e-05 7.44298851425e-05
91 1 7.890882746 6.440465326 3.541396305 0.0 0.0 0.0 -0.0001206107045 -0.000133913434286 0.000122963519607
92 1 15.327692118 6.440465326 3.541396305 0.0 0.0 0.0 -2.9985777088e-05 -4.31282406579e-05 4.51883939909e-05
93 1 4.172478175 5e-09 10.478246445 0.0 0.0 0.0 -5.8737322114e-05 0.000214127227774 0.000528313653847
94 1 11.609287547 5e-09 10.478246445 0.0 0.0 0.0 -0.000118422904178 4.43604617991e-05 3.32342588014e-05
95 1 7.890882789 6.440465319 10.478246445 0.0 0.0 0.0 -0.000121828222014 -0.000130258820154 -1.33564200998e-05
96 1 15.327692161 6.440465319 10.478246445 0.0 0.0 0.0 -2.70998199291e-05 -4.41897565176e-05 6.12182705019e-05
97 2 12.324550744 4.415115375 3.848820709 0.0 0.0 0.0 0.000136354994608 3.75231607059e-05 -1.79297981627e-05
98 2 4.887741372 4.415115375 3.848820709 0.0 0.0 0.0 -0.000333668810029 0.000304529886153 -0.000612548792968
99 2 16.042955358 10.855580689 3.848820709 0.0 0.0 0.0 -0.000244502496284 -9.71278367115e-05 0.000113699896645
100 2 8.606145986 10.855580689 3.848820709 0.0 0.0 0.0 0.000285940341973 0.000154128535923 0.000200751789696
101 2 12.324550787 4.415115367 10.785670849 0.0 0.0 0.0 0.000105384744208 2.56257906706e-05 3.53544051461e-05
102 2 4.887741415 4.415115367 10.785670849 0.0 0.0 0.0 -0.000170733678725 6.50838786237e-05 0.000361621679367
103 2 16.042955401 10.855580681 10.785670849 0.0 0.0 0.0 -0.00014108084774 -9.08938887137e-05 -5.79209719155e-05
104 2 8.606146029 10.855580681 10.785670849 0.0 0.0 0.0 0.000198118910043 8.33171243933e-05 -0.000152009275078
105 1 12.355530592 4.361455296 4.81989398 0.0 0.0 0.0 -5.53011647763e-05 -7.59957107561e-05 4.60945473774e-05
106 1 4.91872122 4.361455296 4.81989398 0.0 0.0 0.0 0.000323590765968 -0.000479467448766 0.000441072077788
107 1 16.073935206 10.801920609 4.81989398 0.0 0.0 0.0 0.000236078723901 1.64460748514e-05 -2.64914587591e-05
108 1 8.637125834 10.801920609 4.81989398 0.0 0.0 0.0 -0.000182350890582 -0.000165286054908 -6.14039040744e-05
109 1 12.355530635 4.361455288 11.75674412 0.0 0.0 0.0 -1.04254409532e-05 -5.41865801305e-05 2.50601142087e-05
110 1 4.918721263 4.361455288 11.75674412 0.0 0.0 0.0 7.03563036829e-05 -3.37900640985e-05 -3.85931699997e-05
111 1 16.073935249 10.801920602 11.75674412 0.0 0.0 0.0 6.81083875094e-05 -6.82140743203e-06 5.06311619951e-05
112 1 8.637125877 10.801920602 11.75674412 0.0 0.0 0.0 -2.92027328389e-05 -5.94232201822e-05 8.06478914996e-05
113 1 12.787381758 3.613470486 3.541396271 0.0 0.0 0.0 -2.4267863572e-05 -5.04009698681e-05 6.46606266561e-05
114 1 5.350572387 3.613470486 3.541396271 0.0 0.0 0.0 0.000176390949145 -9.04933068605e-05 0.000475232049459
115 1 16.505786372 10.0539358 3.541396271 0.0 0.0 0.0 9.53255546452e-05 -6.84050698311e-05 3.02209979447e-05
116 1 9.068977001 10.0539358 3.541396271 0.0 0.0 0.0 -6.06742218556e-05 -0.000162058635562 -2.17262683418e-05
117 1 12.787381802 3.613470479 10.478246411 0.0 0.0 0.0 -2.3515168367e-05 -5.30768899777e-05 4.45319097458e-05
118 1 5.35057243 3.613470479 10.478246411 0.0 0.0 0.0 0.000162647072784 -8.95091093298e-05 -0.000304264667056
119 1 16.505786416 10.053935793 10.478246411 0.0 0.0 0.0 0.000101909620528 -6.1681596648e-05 8.15779935134e-05
120 1 9.068977044 10.053935793 10.478246411 0.0 0.0 0.0 -7.2200250597e-05 -0.00016339217291 0.00014003045844
121 2 16.042954883 2.025349614 3.848821218 0.0 0.0 0.0 7.77542886994e-05 -0.000261810319821 0.00012518422638
122 2 8.606145512 2.025349614 3.848821218 0.0 0.0 0.0 0.000457196450753 -0.000133338704966 -0.000565725466956
123 2 19.761359497 8.465814928 3.848821218 0.0 0.0 0.0 1.05922197198e-05 0.000171367198651 -2.02670785134e-05
124 2 12.324550126 8.465814928 3.848821218 0.0 0.0 0.0 1.86318839822e-05 0.000336205077347 0.000185177531412
125 2 16.042954927 2.025349607 10.785671358 0.0 0.0 0.0 2.9905799088e-05 -0.000155851701833 -6.43406593704e-05
126 2 8.606145555 2.025349607 10.785671358 0.0 0.0 0.0 0.000183638604139 -9.69543434712e-05 0.000341536231093
127 2 19.761359541 8.46581492 10.785671358 0.0 0.0 0.0 1.45106247134e-05 0.000135737404488 3.71532019293e-05
128 2 12.324550169 8.46581492 10.785671358 0.0 0.0 0.0 7.01681102795e-06 0.000233651541024 -0.0001425957896
129 1 16.07393341 2.079010738 4.819894452 0.0 0.0 0.0 -5.34664968374e-05 0.000247341724703 -3.49752452422e-05
130 1 8.637124038 2.079010738 4.819894452 0.0 0.0 0.0 -0.00050823751659 0.000119662526752 0.000454512472078
131 1 19.792338024 8.519476052 4.819894452 0.0 0.0 0.0 3.39904127065e-05 -6.476082722e-05 4.84200094315e-05
132 1 12.355528653 8.519476052 4.819894452 0.0 0.0 0.0 1.67708590137e-05 -0.000193253830809 -4.58376420906e-05
133 1 16.073933453 2.079010731 11.756744592 0.0 0.0 0.0 2.41456152434e-05 8.34966981638e-05 5.35035481891e-05
134 1 8.637124082 2.079010731 11.756744592 0.0 0.0 0.0 7.63285659167e-06 7.93826556789e-05 -3.93157708361e-05
135 1 19.792338067 8.519476045 11.756744592 0.0 0.0 0.0 2.89986600749e-05 -1.0371517648e-05 2.36855507398e-05
136 1 12.355528696 8.519476045 11.756744592 0.0 0.0 0.0 2.88173724729e-05 -2.87618602086e-05 7.59858844207e-05
137 1 1.632167798 2.826994038 3.541396624 0.0 0.0 0.0 8.92375603448e-05 0.000167308241631 5.26048885632e-05
138 1 9.06897717 2.826994038 3.541396624 0.0 0.0 0.0 -0.000109791885819 2.56588091375e-05 0.000203458876085
139 1 5.350572412 9.267459352 3.541396624 0.0 0.0 0.0 1.10528735109e-06 7.13028174659e-06 5.55032311169e-05
140 1 12.787381784 9.267459352 3.541396624 0.0 0.0 0.0 6.61233070517e-05 -8.4291014112e-05 -8.67124990662e-05
141 1 1.632167841 2.826994031 10.478246764 0.0 0.0 0.0 8.16200307308e-05 0.000163264324769 5.87997280566e-05
142 1 9.068977213 2.826994031 10.478246764 0.0 0.0 0.0 -0.000118185028272 3.74216222026e-05 -0.000108091993167
143 1 5.350572456 9.267459345 10.478246764 0.0 0.0 0.0 1.42897887156e-06 5.7488698133e-06 5.37888024385e-05
144 1 12.787381827 9.267459345 10.478246764 0.0 0.0 0.0 7.1965001198e-05 -8.12831956264e-05 0.000202093107543
145 2 12.258736453 12.880930313 6.469757221 0.0 0.0 0.0 -0.202777483929 -0.323011441279 -0.121313881476
146 2 19.695545825 12.880930313 6.469757221 0.0 0.0 0.0 0.000167323767484 -8.8546260093e-05 -4.80381252788e-05
147 2 8.540331839 6.440464999 6.469757221 0.0 0.0 0.0 0.000218811579065 0.000447179721444 -6.07729528409e-05
148 2 15.97714121 6.440464999 6.469757221 0.0 0.0 0.0 -0.000233401234127 0.000136321614083 -4.89745036396e-05
149 2 12.258736496 12.880930306 13.40660736 0.0 0.0 0.0 -0.00012845183726 -0.000143387924596 -6.59317258744e-05
150 2 19.695545868 12.880930306 13.40660736 0.0 0.0 0.0 1.762160698e-05 -3.13950602996e-05 -4.80711957169e-05
151 2 8.540331882 6.440464992 13.40660736 0.0 0.0 0.0 2.104765036e-05 0.000111439474801 -4.18524549401e-05
152 2 15.977141254 6.440464992 13.40660736 0.0 0.0 0.0 -0.000103516225171 3.62275997232e-05 -4.7589558374e-05
153 1 5.32616614 0.758294591 6.788243965 0.0 0.0 0.0 0.200658839648 0.31664762155 0.11940868663
154 1 12.767975512 0.766954845 6.788243965 0.0 0.0 0.0 -0.000188157389261 6.25762340557e-05 -2.52070081001e-05
155 1 9.049570755 7.207420159 6.788243965 0.0 0.0 0.0 -0.000168296111055 -0.000171506720739 -3.01207103458e-05
156 1 16.486380127 7.207420159 6.788243965 0.0 0.0 0.0 3.89255621569e-05 -7.10912820537e-05 -2.55902114614e-05
157 1 5.331166184 0.766954838 13.725094105 0.0 0.0 0.0 -1.03314204914e-05 0.000106310489781 -3.08521311933e-05
158 1 12.767975556 0.766954838 13.725094105 0.0 0.0 0.0 -9.74449540679e-05 3.45919681666e-05 -2.39801030753e-05
159 1 9.049570798 7.207420151 13.725094105 0.0 0.0 0.0 -9.61048564913e-05 -4.38322866667e-05 -2.15746088953e-05
160 1 16.48638017 7.207420151 13.725094105 0.0 0.0 0.0 -2.84832846372e-05 -6.06568024462e-06 -2.37834585203e-05
161 1 16.486380702 5.673510068 6.788243516 0.0 0.0 0.0 7.12582220446e-05 -6.12153949062e-05 -2.13854249794e-05
162 1 9.04957133 5.673510068 6.788243516 0.0 0.0 0.0 -0.000253365809318 -0.00024829580909 -2.35429570922e-05
163 1 20.204785316 12.113975382 6.788243516 0.0 0.0 0.0 -0.000154764917964 -7.69381743991e-06 -2.33360353618e-05
164 1 12.767975944 12.113975382 6.788243516 0.0 0.0 0.0 -0.00521726030545 -0.00458327521522 -0.00389126006251
165 1 16.486380745 5.673510061 13.725093655 0.0 0.0 0.0 -3.04965141824e-05 -2.28129510318e-05 -2.19754758702e-05
166 1 9.049571373 5.673510061 13.725093655 0.0 0.0 0.0 -9.66670241762e-05 -6.09963333748e-05 -2.09552685058e-05
167 1 20.204785359 12.113975375 13.725093655 0.0 0.0 0.0 -9.06373287437e-05 -1.33435299939e-05 -2.09919082659e-05
168 1 12.767975987 12.113975375 13.725093655 0.0 0.0 0.0 -2.1707025364e-05 2.54640149027e-05 -2.29712544208e-05
169 2 12.462655523 4.175912014 6.46975888 0.0 0.0 0.0 0.000193194705274 4.54339294964e-05 -5.69221471463e-05
170 2 5.025846151 4.175912014 6.46975888 0.0 0.0 0.0 -0.000907046449499 0.00182991810997 -0.000273383145704
171 2 16.181060137 10.616377328 6.46975888 0.0 0.0 0.0 -0.000523067649525 -0.000125277736574 -3.24486603057e-05
172 2 8.744250765 10.616377328 6.46975888 0.0 0.0 0.0 0.000537755096506 0.000315681381862 5.60361562159e-06
173 2 12.462655566 4.175912007 13.406609019 0.0 0.0 0.0 7.35012169682e-05 -1.02487335728e-05 -5.22791524229e-05
174 2 5.025846194 4.175912007 13.406609019 0.0 0.0 0.0 -5.59418394356e-05 -5.50704961e-05 -2.89986138642e-05
175 2 16.18106018 10.616377321 13.406609019 0.0 0.0 0.0 -5.1428221956e-05 -7.8661494031e-05 -5.91689841309e-05
176 2 8.744250808 10.616377321 13.406609019 0.0 0.0 0.0 9.47889951083e-05 1.71243752879e-06 -7.28121944249e-05
177 1 4.107023344 4.233448053 6.788243333 0.0 0.0 0.0 0.000697646284408 -0.000421363289852 -4.5269625449e-05
178 1 11.543832716 4.233448053 6.788243333 0.0 0.0 0.0 -0.000135465683323 -0.000133602356381 -2.08031320401e-05
179 1 7.825427958 10.673913367 6.788243333 0.0 0.0 0.0 -0.000152463815807 -0.000150733699302 -1.91822392752e-05
180 1 15.26223733 10.673913367 6.788243333 0.0 0.0 0.0 0.000562008803187 -0.000229179365719 -2.31731360574e-05
181 1 4.107023387 4.233448046 13.725093473 0.0 0.0 0.0 5.98857517433e-05 -4.27767556462e-05 -1.87734586463e-05
182 1 11.543832759 4.233448046 13.725093473 0.0 0.0 0.0 -2.36307511014e-05 -8.0664728574e-05 -1.98488486269e-05
183 1 7.825428001 10.67391336 13.725093473 0.0 0.0 0.0 -2.52998325108e-05 -8.38519051315e-05 -2.02989601692e-05
184 1 15.262237373 10.67391336 13.725093473 0.0 0.0 0.0 5.87502576308e-05 -4.39070165275e-05 -2.00297429991e-05
185 1 12.872237203 5.00040447 6.78824545 0.0 0.0 0.0 1.06811953058e-05 -0.000114440780889 -3.09538405577e-05
186 1 5.435427832 5.00040447 6.78824545 0.0 0.0 0.0 7.17396990793e-05 -0.000597795781137 -6.05267341599e-05
187 1 16.590641818 11.440869783 6.78824545 0.0 0.0 0.0 0.000178017412961 0.000178798017838 -2.15296770774e-05
188 1 9.153832446 11.440869783 6.78824545 0.0 0.0 0.0 -0.000443337119067 -0.000303247171128 -6.06595382629e-05
189 1 12.872237247 5.000404462 13.72509559 0.0 0.0 0.0 3.3009791416e-05 -7.53732566739e-05 -2.79113077096e-05
190 1 5.435427875 5.000404462 13.72509559 0.0 0.0 0.0 6.52516579209e-05 -7.54599418669e-05 -2.73810693854e-05
191 1 16.590641861 11.440869776 13.72509559 0.0 0.0 0.0 6.6859079978e-05 -1.63027841426e-05 -3.05620658769e-05
192 1 9.153832489 11.440869776 13.72509559 0.0 0.0 0.0 1.68009382463e-05 -4.70585568397e-05 -2.73868018041e-05
193 2 1.307441393 2.264553585 6.469759523 0.0 0.0 0.0 0.000227287418518 -0.000533955679572 -2.92967061938e-05
194 2 8.744250764 2.264553585 6.469759523 0.0 0.0 0.0 0.00194427511766 5.96668281579e-05 -0.000254218936273
195 2 5.025846007 8.705018899 6.469759523 0.0 0.0 0.0 8.87626136428e-06 0.000252549954832 -5.73139497624e-05
196 2 12.462655379 8.705018899 6.469759523 0.0 0.0 0.0 3.74071450734e-05 0.00062778320483 2.21390502672e-06
197 2 1.307441436 2.264553578 13.406609663 0.0 0.0 0.0 1.4787210449e-05 -4.05189430333e-05 -5.96148326839e-05
198 2 8.744250808 2.264553578 13.406609663 0.0 0.0 0.0 4.22685168987e-05 -2.91743605184e-05 -2.99016523429e-05
199 2 5.02584605 8.705018892 13.406609663 0.0 0.0 0.0 1.62013411831e-05 0.000110471964376 -5.21784237163e-05
200 2 12.462655422 8.705018892 13.406609663 0.0 0.0 0.0 1.05645424359e-05 0.000130905323522 -7.23097295372e-05
201 1 1.717022388 1.440060952 6.788246651 0.0 0.0 0.0 -0.000432683347537 0.000567351077227 -3.37958075748e-05
202 1 9.15383176 1.440060952 6.788246651 0.0 0.0 0.0 -0.000448298829695 0.000395808202756 -5.544762528e-05
203 1 5.435427002 7.880526266 6.788246651 0.0 0.0 0.0 4.7272656352e-05 -0.000120885299432 -3.31585016345e-05
204 1 12.872236374 7.880526266 6.788246651 0.0 0.0 0.0 6.74324768374e-05 -0.000128866266292 -3.23432684723e-05
205 1 1.717022431 1.440060945 13.725096791 0.0 0.0 0.0 4.55663236064e-05 0.000103702108976 -3.2420830494e-05
206 1 9.153831803 1.440060945 13.725096791 0.0 0.0 0.0 3.63925894907e-05 9.70450548058e-05 -3.09901533619e-05
207 1 5.435427045 7.880526258 13.725096791 0.0 0.0 0.0 4.59096705148e-05 7.47985815556e-06 -3.1924419658e-05
208 1 12.872236417 7.880526258 13.725096791 0.0 0.0 0.0 5.21920564514e-05 9.18063831048e-06 -3.23383765413e-05
209 1 15.262237079 2.207018097 6.788243067 0.0 0.0 0.0 -8.19831749543e-05 0.000159277271364 -1.32305092966e-05
210 1 7.825427708 2.207018097 6.788243067 0.0 0.0 0.0 -0.00245775137706 -0.000578706373812 -1.03930359632e-05
211 1 18.980641693 8.647483411 6.788243067 0.0 0.0 0.0 5.68668098939e-05 -1.55022398876e-05 -1.75952751596e-05
212 1 11.543832322 8.647483411 6.788243067 0.0 0.0 0.0 -8.2397096652e-05 -0.000233577415787 -2.86484852196e-05
213 1 15.262237122 2.207018089 13.725093207 0.0 0.0 0.0 -3.8096855759e-06 8.55872572936e-05 -1.69230772827e-05
214 1 7.825427751 2.207018089 13.725093207 0.0 0.0 0.0 2.11114350688e-05 0.000107776306491 -1.70089880864e-05
215 1 18.980641736 8.647483403 13.725093207 0.0 0.0 0.0 2.64675931441e-05 3.5509449961e-05 -1.58687353336e-05
216 1 11.543832365 8.647483403 13.725093207 0.0 0.0 0.0 -3.82441289423e-06 8.6006927093e-06 -1.49090923106e-05
217 2 10.05169036 12.880930562 3.001331049 0.0 0.0 0.0 0.000261826326561 -0.000148552267344 0.000392939141563
218 2 17.488499731 12.880930562 3.001331049 0.0 0.0 0.0 9.31512044201e-05 -0.000178437746366 -0.00012707818636
219 2 6.333285745 6.440465248 3.001331049 0.0 0.0 0.0 5.73550448089e-05 0.000230582656292 -0.000197890692465
220 2 13.770095117 6.440465248 3.001331049 0.0 0.0 0.0 3.96810108454e-05 0.000115563869219 -1.44174024422e-05
221 2 10.051690403 12.880930555 9.938181189 0.0 0.0 0.0 0.000412583662294 -0.000218457597095 -0.000662917016064
222 2 17.488499774 12.880930555 9.938181189 0.0 0.0 0.0 0.000125489963711 -0.000222661046342 6.16211176493e-05
223 2 6.333285789 6.440465241 9.938181189 0.0 0.0 0.0 6.26498949868e-05 0.000291243141938 0.000130405662002
224 2 13.77009516 6.440465241 9.938181189 0.0 0.0 0.0 3.45248571604e-05 0.000138197567457 -7.4246705121e-05
225 1 13.26085702 5.67351034 3.319819519 0.0 0.0 0.0 4.00853997457e-05 -6.19290387538e-05 -2.99304178947e-05
226 1 5.824047648 5.67351034 3.319819519 0.0 0.0 0.0 9.34774860328e-05 -0.00015897558085 0.000121530189676
227 1 16.979261634 12.113975653 3.319819519 0.0 0.0 0.0 0.000103462511623 8.12666993602e-05 -2.10252798308e-05
228 1 9.542452262 12.113975653 3.319819519 0.0 0.0 0.0 -9.37782499282e-05 -5.83849928374e-05 -0.000213279355318
229 1 13.260857063 5.673510332 10.256669659 0.0 0.0 0.0 4.01143370945e-05 -6.19403123561e-05 -2.78668376688e-05
230 1 5.824047691 5.673510332 10.256669659 0.0 0.0 0.0 9.35364332234e-05 -0.000158999821895 -0.000179347367238
231 1 16.979261677 12.113975646 10.256669659 0.0 0.0 0.0 0.000103503637855 8.1236874147e-05 -3.67764454839e-05
232 1 9.542452305 12.113975646 10.256669659 0.0 0.0 0.0 -9.37776690242e-05 -5.8531572515e-05 0.000155409578516
233 1 2.105642892 0.766955018 3.319818703 0.0 0.0 0.0 -2.82716938684e-05 0.000179555929765 -0.000183714198848
234 1 9.542452263 0.766955018 3.319818703 0.0 0.0 0.0 -1.58417408441e-05 0.000142521049714 8.57161463498e-05
235 1 5.824047506 7.207420332 3.319818703 0.0 0.0 0.0 5.98580194765e-05 -8.49769382504e-05 1.31136031717e-05
236 1 13.260856878 7.207420332 3.319818703 0.0 0.0 0.0 6.83524666403e-05 -7.42626286973e-05 -6.13117517849e-05
237 1 2.105642935 0.766955011 10.256668843 0.0 0.0 0.0 -7.89624360009e-07 0.000195349119916 0.000111362065131
238 1 9.542452307 0.766955011 10.256668843 0.0 0.0 0.0 -2.3732718428e-05 0.000138018685558 -0.00013871856592
239 1 5.824047549 7.207420325 10.256668843 0.0 0.0 0.0 5.92826243373e-05 -7.91485753308e-05 -6.00944665053e-05
240 1 13.260856921 7.207420325 10.256668843 0.0 0.0 0.0 7.08967686815e-05 -7.89224002175e-05 1.38014089587e-05
241 2 13.566178647 2.264553318 3.001331607 0.0 0.0 0.0 8.58141747237e-05 -1.63112633808e-05 -3.4621563884e-05
242 2 6.129369276 2.264553318 3.001331607 0.0 0.0 0.0 -0.000231843668092 -0.000359343811017 -0.000778992039156
243 2 17.284583261 8.705018632 3.001331607 0.0 0.0 0.0 -0.000121515291231 0.000110924202833 -3.99220821099e-05
244 2 9.84777389 8.705018632 3.001331607 0.0 0.0 0.0 0.000100710088928 0.000262407654732 4.14126127039e-05
245 2 13.56617869 2.26455331 9.938181747 0.0 0.0 0.0 0.000103556921702 -2.58237347724e-05 -5.98302000167e-05
246 2 6.129369319 2.26455331 9.938181747 0.0 0.0 0.0 -0.000232590997131 -0.000387978523197 0.00123915145663
247 2 17.284583305 8.705018624 9.938181747 0.0 0.0 0.0 -0.000137619432936 0.000121804616473 -5.41106787465e-05
248 2 9.847773933 8.705018624 9.938181747 0.0 0.0 0.0 0.000133709298914 0.000321026175818 -0.000152157591622
249 1 14.485000752 2.20701716 3.319818255 0.0 0.0 0.0 -6.07680938736e-05 0.000114314474256 -4.97747994315e-05
250 1 7.048191381 2.20701716 3.319818255 0.0 0.0 0.0 -0.000101714182006 0.000177306767753 0.000424731472105
251 1 18.203405367 8.647482473 3.319818255 0.0 0.0 0.0 1.57421888824e-05 1.70479422897e-05 -1.6928521147e-05
252 1 10.766595995 8.647482473 3.319818255 0.0 0.0 0.0 -6.43249460464e-05 -7.08425580809e-05 -9.86164329869e-05
253 1 14.485000796 2.207017152 10.256668395 0.0 0.0 0.0 -5.81527444798e-05 0.000115740028688 -1.47117715066e-06
254 1 7.048191424 2.207017152 10.256668395 0.0 0.0 0.0 -0.000129534015896 0.000151631815899 -0.000415690157601
255 1 18.20340541 8.647482466 10.256668395 0.0 0.0 0.0 1.36246228347e-05 1.80249106034e-05 -3.46846000727e-05
256 1 10.766596038 8.647482466 10.256668395 0.0 0.0 0.0 -6.46993925841e-05 -8.03366090331e-05 5.58377488719e-05
257 1 5.719786092 1.440061854 3.319818129 0.0 0.0 0.0 0.000264945914087 0.0005852928547 0.000157434857942
258 1 13.156595464 1.440061854 3.319818129 0.0 0.0 0.0 -0.000117975276435 7.38214709008e-05 -2.48068000275e-05
259 1 9.438190706 7.880527168 3.319818129 0.0 0.0 0.0 -0.00011140916028 -7.20849355502e-05 -2.62238290596e-05
260 1 16.875000078 7.880527168 3.319818129 0.0 0.0 0.0 1.77987628989e-05 -4.73554823525e-06 -2.47287465677e-05
261 1 5.719786135 1.440061847 10.256668269 0.0 0.0 0.0 0.000269559703793 0.000582904053198 -0.000204059131672
262 1 13.156595507 1.440061847 10.256668269 0.0 0.0 0.0 -0.00011801221381 7.35954227559e-05 -2.17784380311e-05
263 1 9.438190749 7.880527161 10.256668269 0.0 0.0 0.0 -0.000111716147111 -7.19549331476e-05 -2.03090277477e-05
264 1 16.875000121 7.880527161 10.256668269 0.0 0.0 0.0 1.79322899063e-05 -4.69558272988e-06 -2.17053407001e-05
265 2 2.410964342 4.175911908 3.001332195 0.0 0.0 0.0 -0.000210184706424 -9.73596117383e-05 -0.000144253437887
266 2 9.847773713 4.175911908 3.001332195 0.0 0.0 0.0 0.0001721930056 7.04330822484e-05 -0.000195652169367
267 2 6.129368956 10.616377222 3.001332195 0.0 0.0 0.0 8.75413909868e-05 1.3522835891e-05 -1.47203370537e-05
268 2 13.566178327 10.616377222 3.001332195 0.0 0.0 0.0 -0.000257321398739 6.711434509e-05 0.000354284251019
269 2 2.410964385 4.175911901 9.938182334 0.0 0.0 0.0 -0.000268781634691 -9.0535497126e-05 7.24271701149e-05
270 2 9.847773757 4.175911901 9.938182334 0.0 0.0 0.0 0.000221046049547 0.00010336141468 0.000118018884331
271 2 6.129368999 10.616377215 9.938182334 0.0 0.0 0.0 0.000110728351112 2.13963357174e-05 -8.33890150769e-05
272 2 13.566178371 10.616377215 9.938182334 0.0 0.0 0.0 -0.000391864604894 0.000156074471259 -0.000617306001273