ITEM: TIMESTEP
0
ITEM: NUMBER OF ATOMS
288
ITEM: BOX BOUNDS xy xz yz xx yy zz
0.0 14.873618743 7.436809228
0.0 12.880930628 8.6e-08
0.0 13.87370028 -1.5e-08
ITEM: ATOMS id type x y z vx vy vz fx fy fz
1 2 2.343671397 0.008660366 0.380392751 0.0 0.0 0.0 -0.265272285007 -0.0817378531615 0.0314388928049
2 2 9.775480768 1.12e-07 0.380392751 0.0 0.0 0.0 0.000498459417571 -0.000178167907782 1.50957545322e-05
3 2 6.057076011 6.440465426 0.380392751 0.0 0.0 0.0 0.000498446217275 0.000814253078312 1.50899957445e-05
4 2 13.493885382 6.440465426 0.380392751 0.0 0.0 0.0 -0.00036100164129 0.000318040677633 1.50952034595e-05
5 2 2.33867144 1.04e-07 7.317242891 0.0 0.0 0.0 -0.000159011012766 -0.000324649828598 1.65630415752e-05
6 2 9.775480812 1.04e-07 7.317242891 0.0 0.0 0.0 0.000164546794851 -6.57982023623e-05 1.65610699589e-05
7 2 6.057076054 6.440465418 7.317242891 0.0 0.0 0.0 0.000164544930353 0.000235767294954 1.65616274079e-05
8 2 13.493885426 6.440465418 7.317242891 0.0 0.0 0.0 -9.66660443926e-05 8.49839748827e-05 1.65746043015e-05
9 1 2.400632363 4.61e-07 1.351465958 0.0 0.0 0.0 0.0335009957584 0.0174242210244 0.00916450284649
10 1 9.837441735 4.61e-07 1.351465958 0.0 0.0 0.0 -0.00018199624819 8.40478949418e-05 3.64316774821e-05
11 1 6.119036977 6.440465774 1.351465958 0.0 0.0 0.0 -0.00018164455201 -0.000388461402648 3.62593927377e-05
12 1 13.555846349 6.440465774 1.351465958 0.0 0.0 0.0 0.00022708371543 -0.000152439276066 4.00744513896e-05
13 1 2.400632406 4.53e-07 8.288316098 0.0 0.0 0.0 0.000154454755825 0.000194213036298 3.50091250377e-05
14 1 9.837441778 4.53e-07 8.288316098 0.0 0.0 0.0 -3.29234237302e-05 3.37581059415e-05 3.98453666331e-05
15 1 6.11903702 6.440465767 8.288316098 0.0 0.0 0.0 -3.28909668585e-05 -0.000130523825145 3.99410255942e-05
16 1 13.555846392 6.440465767 8.288316098 0.0 0.0 0.0 0.000109258892371 -4.84502085358e-05 3.78566607306e-05
17 1 10.701141082 12.880930558 0.072968506 0.0 0.0 0.0 0.196796364776 0.016650757346 -0.0358872700735
18 1 18.137950453 12.880930558 0.072968506 0.0 0.0 0.0 -0.000193114452831 0.000108632036311 4.48262841434e-05
19 1 6.982736468 6.440465244 0.072968506 0.0 0.0 0.0 -0.000151991662564 -0.000406736687282 4.57155356406e-05
20 1 14.419545839 6.440465244 0.072968506 0.0 0.0 0.0 0.000246917952651 -0.000176855454769 6.35826661786e-05
21 1 10.701141125 12.880930551 7.009818646 0.0 0.0 0.0 0.000148009007347 0.000163382772396 4.01568405255e-05
22 1 18.137950497 12.880930551 7.009818646 0.0 0.0 0.0 -4.97056363716e-06 3.79782935631e-05 5.98278611006e-05
23 1 6.982736511 6.440465237 7.009818646 0.0 0.0 0.0 -2.1020746653e-06 -0.000117262627009 5.96181139682e-05
24 1 14.419545882 6.440465237 7.009818646 0.0 0.0 0.0 0.000121082503166 -4.61953163099e-05 5.02907923091e-05
25 2 13.704282012 2.025348059 0.380394512 0.0 0.0 0.0 -0.000506669667995 -0.00083084348263 7.85442583917e-06
26 2 6.26747264 2.025348059 0.380394512 0.0 0.0 0.0 0.00209289036378 0.000669819376516 7.85401916051e-06
27 2 17.422686626 8.465813373 0.380394512 0.0 0.0 0.0 0.00015169054384 0.000316839120653 7.85549048088e-06
28 2 9.985877254 8.465813373 0.380394512 0.0 0.0 0.0 -0.000506883994876 0.00216657608085 7.85316065935e-06
29 2 13.704282055 2.025348052 7.317244652 0.0 0.0 0.0 -9.25169986579e-05 -0.000107837936484 9.31907248769e-06
30 2 6.267472684 2.025348052 7.317244652 0.0 0.0 0.0 0.000102296389727 4.66667355871e-06 9.31603397582e-06
31 2 17.422686669 8.465813365 7.317244652 0.0 0.0 0.0 4.56367294537e-05 0.000132445727735 9.30637549379e-06
32 2 9.985877298 8.465813365 7.317244652 0.0 0.0 0.0 -9.25414942035e-05 0.000118067382249 9.30916729695e-06
33 1 13.673300338 2.079010187 1.351467718 0.0 0.0 0.0 0.00021138287392 0.000464110082969 3.61916287502e-05
34 1 6.236490966 2.079010187 1.351467718 0.0 0.0 0.0 -0.000930020565588 -0.00019740144752 -0.00034093487143
35 1 17.391704952 8.519475501 1.351467718 0.0 0.0 0.0 -9.39529562187e-05 -0.000119669880795 3.10143445176e-05
36 1 9.95489558 8.519475501 1.351467718 0.0 0.0 0.0 0.000211473525944 -0.000836348652534 0.000382921782103
37 1 13.673300381 2.07901018 8.288317858 0.0 0.0 0.0 2.98367097939e-05 0.000109190124674 3.09247810013e-05
38 1 6.236491009 2.07901018 8.288317858 0.0 0.0 0.0 -8.57226447818e-05 4.24074702869e-05 0.000119520099096
39 1 17.391704995 8.519475493 8.288317858 0.0 0.0 0.0 -4.6615223971e-05 -3.10753770343e-05 3.23632200957e-05
40 1 9.954895623 8.519475493 8.288317858 0.0 0.0 0.0 2.98417241726e-05 -3.15433338143e-05 -5.41751406988e-05
41 1 13.241451457 2.826992613 0.072968839 0.0 0.0 0.0 0.000170317287764 0.000150140332605 6.39197438537e-05
42 1 5.804642085 2.826992613 0.072968839 0.0 0.0 0.0 -0.000932784828991 -0.000655648712695 0.000244344934955
43 1 16.959856071 9.267457927 0.072968839 0.0 0.0 0.0 -0.000113453969961 1.60726130156e-05 5.34796008936e-05
44 1 9.523046699 9.267457927 0.072968839 0.0 0.0 0.0 8.73203010326e-05 -0.00203083317577 -0.000330569673499
45 1 13.2414515 2.826992606 7.009818978 0.0 0.0 0.0 8.34259863314e-06 8.96147512109e-05 5.14290593097e-05
46 1 5.804642128 2.826992606 7.009818978 0.0 0.0 0.0 -8.92563991629e-05 2.92398665267e-05 1.21669797216e-05
47 1 16.959856114 9.26745792 7.009818978 0.0 0.0 0.0 -6.11673464046e-05 4.00544220338e-05 5.51896485668e-05
48 1 9.523046743 9.26745792 7.009818978 0.0 0.0 0.0 8.18584195149e-06 4.75569536729e-05 0.000103501743343
49 2 17.422687622 4.415117298 0.380394729 0.0 0.0 0.0 -0.000509585745168 0.00211889249679 8.81888470039e-06
50 2 9.985878251 4.415117298 0.380394729 0.0 0.0 0.0 0.000151436415951 0.000259033164752 8.82029044262e-06
51 2 21.141092236 10.855582612 0.380394729 0.0 0.0 0.0 0.00210643817581 0.000627538523821 8.82178331163e-06
52 2 13.704282865 10.855582612 0.380394729 0.0 0.0 0.0 -0.000509581614554 -0.000883057887564 8.82018817317e-06
53 2 17.422687665 4.415117291 7.317244869 0.0 0.0 0.0 -9.26391708731e-05 6.10931269105e-05 1.02765275777e-05
54 2 9.985878294 4.415117291 7.317244869 0.0 0.0 0.0 4.52359193605e-05 7.52517372476e-05 1.02735364617e-05
55 2 21.14109228 10.855582605 7.317244869 0.0 0.0 0.0 0.000101909085036 -5.15737351696e-05 1.02756742025e-05
56 2 13.704282908 10.855582605 7.317244869 0.0 0.0 0.0 -9.26511546201e-05 -0.000163905050487 1.02718543651e-05
57 1 2.518088606 4.36145465 1.351467896 0.0 0.0 0.0 0.000172622649184 -0.000913558343402 -0.000324064514349
58 1 9.954897977 4.36145465 1.351467896 0.0 0.0 0.0 -9.12885144432e-05 -0.00016864064276 3.41842255338e-05
59 1 6.23649322 10.801919964 1.351467896 0.0 0.0 0.0 -0.0009930915664 -0.000285330698889 0.000432434100816
60 1 13.673302591 10.801919964 1.351467896 0.0 0.0 0.0 0.000170918281448 0.000384411980421 2.53179516693e-05
61 1 2.518088649 4.361454643 8.288318036 0.0 0.0 0.0 2.05497595377e-05 -8.78758382394e-05 0.000120388839023
62 1 9.95489802 4.361454643 8.288318036 0.0 0.0 0.0 -4.9388539657e-05 -8.35985995802e-05 3.24159268549e-05
63 1 6.236493263 10.801919957 8.288318036 0.0 0.0 0.0 -8.89033487054e-05 -1.08092369295e-05 -5.6856144685e-05
64 1 13.673302635 10.801919957 8.288318036 0.0 0.0 0.0 2.05077745961e-05 5.23048091695e-05 3.4977029884e-05
65 1 16.959856167 3.613473172 0.07296928 0.0 0.0 0.0 0.000824228761542 -0.00173913622789 0.000397978810921
66 1 9.523046796 3.613473172 0.07296928 0.0 0.0 0.0 -0.000200644972092 -0.000156661994148 6.12339908437e-05
67 1 20.678260782 10.053938486 0.07296928 0.0 0.0 0.0 -0.000554926973365 -0.000392688694629 -4.77341354559e-05
68 1 13.24145141 10.053938486 0.07296928 0.0 0.0 0.0 0.000519684397958 5.81229907479e-05 1.93505157319e-05
69 1 16.959856211 3.613473164 7.00981942 0.0 0.0 0.0 4.51009235736e-05 -5.3599490818e-05 1.03147815544e-05
70 1 9.523046839 3.613473164 7.00981942 0.0 0.0 0.0 -8.44322241739e-05 -9.59176912456e-05 5.03268922094e-05
71 1 20.678260825 10.053938478 7.00981942 0.0 0.0 0.0 -0.000107340256022 -0.000100251189477 8.60519999743e-05
72 1 13.241451453 10.053938478 7.00981942 0.0 0.0 0.0 4.12466599131e-05 -1.85007839607e-05 6.19000925736e-05
73 2 5.098138192 9.1e-08 3.848820961 0.0 0.0 0.0 3.5589015843e-05 -0.000936850996325 0.000814099152608
74 2 12.534947564 9.1e-08 3.848820961 0.0 0.0 0.0 0.000274495475305 -0.000271750005386 -0.000237039258932
75 2 8.816542806 6.440465404 3.848820961 0.0 0.0 0.0 9.15451646838e-05 0.000442965401799 -0.000140715784727
76 2 16.253352178 6.440465404 3.848820961 0.0 0.0 0.0 -0.000171287788366 0.000291865156018 0.000138887454626
77 2 5.098138235 8.3e-08 10.785671101 0.0 0.0 0.0 3.55750716762e-05 -0.000936853142423 -0.000800283464818
78 2 12.534947607 8.3e-08 10.785671101 0.0 0.0 0.0 0.000274487165461 -0.00027174634621 0.000250863151226
79 2 8.816542849 6.440465397 10.785671101 0.0 0.0 0.0 9.15375672763e-05 0.000442956709189 0.000154531693115
80 2 16.253352221 6.440465397 10.785671101 0.0 0.0 0.0 -0.000171296104808 0.00029186174508 -0.000125065655168
81 1 12.472986142 12.880930033 4.819894401 0.0 0.0 0.0 -8.04554047861e-06 0.000203689428616 -0.000113578374066
82 1 19.909795513 12.880930033 4.819894401 0.0 0.0 0.0 -0.0001194608358 9.50785819898e-05 0.000112674004262
83 1 8.754581528 6.440464719 4.819894401 0.0 0.0 0.0 -8.09109344603e-05 -0.000145378963941 8.48098830852e-05
84 1 16.191390899 6.440464719 4.819894401 0.0 0.0 0.0 3.33375597782e-06 -9.68910510544e-05 -2.09601857763e-05
85 1 12.472986185 12.880930026 11.756744541 0.0 0.0 0.0 -0.000397418290694 0.000902198688961 0.000855761623409
86 1 19.909795557 12.880930026 11.756744541 0.0 0.0 0.0 -0.000309739165334 0.000208714140547 -0.000134908323111
87 1 8.754581571 6.440464712 11.756744541 0.0 0.0 0.0 -0.00011612842714 -0.000306181451863 -5.33566563249e-05
88 1 16.191390943 6.440464712 11.756744541 0.0 0.0 0.0 4.89485170194e-05 -0.000211471857335 0.000101730202387
89 1 4.172478132 1.2e-08 3.541396305 0.0 0.0 0.0 0.000129721662626 0.00104454411975 -0.000723099229339
90 1 11.609287504 1.2e-08 3.541396305 0.0 0.0 0.0 -0.00024214538609 8.97073236949e-05 0.000113366528212
91 1 7.890882746 6.440465326 3.541396305 0.0 0.0 0.0 -0.000196117266221 -0.00027475249742 0.000107470801293
92 1 15.327692118 6.440465326 3.541396305 0.0 0.0 0.0 5.54209944843e-05 -0.000129808490417 9.26895580611e-06
93 1 4.172478175 5e-09 10.478246445 0.0 0.0 0.0 0.000132612632586 0.000501789994057 0.000349663008631
94 1 11.609287547 5e-09 10.478246445 0.0 0.0 0.0 -0.000182344366421 6.16556804951e-05 9.68112493179e-06
95 1 7.890882789 6.440465319 10.478246445 0.0 0.0 0.0 -0.00016656480086 -0.000200859832648 9.04334780669e-06
96 1 15.327692161 6.440465319 10.478246445 0.0 0.0 0.0 2.7116618998e-05 -8.91764631467e-05 8.98086322618e-05
97 2 12.324550744 4.415115375 3.848820709 0.0 0.0 0.0 -0.000127734981039 3.64542663622e-05 2.60278154787e-05
98 2 4.887741372 4.415115375 3.848820709 0.0 0.0 0.0 0.000318480367799 0.000505285292566 0.000497437071071
99 2 16.042955358 10.855580689 3.848820709 0.0 0.0 0.0 0.000135528347004 -0.000115543590517 2.60327690567e-05
100 2 8.606145986 10.855580689 3.848820709 0.0 0.0 0.0 8.24726392881e-05 9.65027829832e-05 -0.0016110380913
101 2 12.324550787 4.415115367 10.785670849 0.0 0.0 0.0 -0.0001277259871 3.64602215504e-05 -5.07277521811e-06
102 2 4.887741415 4.415115367 10.785670849 0.0 0.0 0.0 0.000318472433705 0.000505311416444 -0.000476491169534
103 2 16.042955401 10.855580681 10.785670849 0.0 0.0 0.0 0.000135535280111 -0.000115535987457 -5.074504006e-06
104 2 8.606146029 10.855580681 10.785670849 0.0 0.0 0.0 8.24622800776e-05 9.65320998327e-05 0.0016319935984
105 1 12.355530592 4.361455296 4.81989398 0.0 0.0 0.0 7.09401042052e-05 -6.05000161943e-05 3.03587511904e-05
106 1 4.91872122 4.361455296 4.81989398 0.0 0.0 0.0 -5.24777800395e-05 -0.000173780129248 -0.000116190275734
107 1 16.073935206 10.801920609 4.81989398 0.0 0.0 0.0 -2.13625745899e-05 1.63840772196e-06 2.73085938275e-05
108 1 8.637125834 10.801920609 4.81989398 0.0 0.0 0.0 6.40912031765e-05 5.77795123717e-05 0.000329911360331
109 1 12.355530635 4.361455288 11.75674412 0.0 0.0 0.0 0.00011705258088 -7.96871591287e-05 4.06110538033e-05
110 1 4.918721263 4.361455288 11.75674412 0.0 0.0 0.0 -0.000227406162372 -0.0004883863799 0.000326060324743
111 1 16.073935249 10.801920602 11.75674412 0.0 0.0 0.0 -6.08665243384e-05 3.69545117007e-05 4.47085313051e-05
112 1 8.637125877 10.801920602 11.75674412 0.0 0.0 0.0 -0.000352641349621 -0.00057689274215 -0.00176109134328
113 1 12.787381758 3.613470486 3.541396271 0.0 0.0 0.0 0.000131621761301 -1.30416014331e-05 3.13139299419e-05
114 1 5.350572387 3.613470486 3.541396271 0.0 0.0 0.0 -0.000267008578382 -0.000343511281104 -0.000310985678392
115 1 16.505786372 10.0539358 3.541396271 0.0 0.0 0.0 -3.08113276849e-05 -6.68492424293e-05 6.17524748828e-05
116 1 9.068977001 10.0539358 3.541396271 0.0 0.0 0.0 7.7408828654e-05 -0.000513990345577 0.000915309274614
117 1 12.787381802 3.613470479 10.478246411 0.0 0.0 0.0 0.000102232312516 -1.96450251932e-05 7.36970154329e-05
118 1 5.35057243 3.613470479 10.478246411 0.0 0.0 0.0 -0.000140363858842 -0.000199865251623 0.000320240943662
119 1 16.505786416 10.053935793 10.478246411 0.0 0.0 0.0 -1.6720861729e-05 -6.94701887897e-05 4.74688082588e-05
120 1 9.068977044 10.053935793 10.478246411 0.0 0.0 0.0 0.000108656418996 -0.000198183514678 -0.000364972667334
121 2 16.042954883 2.025349614 3.848821218 0.0 0.0 0.0 -0.000830758383461 -0.00038687787004 0.000820362596692
122 2 8.606145512 2.025349614 3.848821218 0.0 0.0 0.0 0.000337914387301 4.78588361694e-05 0.000142025363404
123 2 19.761359497 8.465814928 3.848821218 0.0 0.0 0.0 0.00033735751193 0.000353104275181 -0.000136946732871
124 2 12.324550126 8.465814928 3.848821218 0.0 0.0 0.0 -0.000372394487708 0.000154186474143 -0.000232972772685
125 2 16.042954927 2.025349607 10.785671358 0.0 0.0 0.0 -0.000830777047089 -0.000386883784767 -0.000799586546572
126 2 8.606145555 2.025349607 10.785671358 0.0 0.0 0.0 0.000337926805125 4.78786355188e-05 -0.000121246804393
127 2 19.761359541 8.46581492 10.785671358 0.0 0.0 0.0 0.000337383638334 0.000353155077409 0.000157719337182
128 2 12.324550169 8.46581492 10.785671358 0.0 0.0 0.0 -0.000372367228912 0.000154246872797 0.000253751158811
129 1 16.07393341 2.079010738 4.819894452 0.0 0.0 0.0 0.000190556578586 0.000193231188437 -9.8952567e-05
130 1 8.637124038 2.079010738 4.819894452 0.0 0.0 0.0 -8.15099363715e-05 2.89047951136e-05 -1.6868018584e-05
131 1 19.792338024 8.519476052 4.819894452 0.0 0.0 0.0 -7.66423812324e-05 -8.42533115063e-05 8.28126697476e-05
132 1 12.355528653 8.519476052 4.819894452 0.0 0.0 0.0 0.000141714856278 -1.58277333088e-07 0.000112331369584
133 1 16.073933453 2.079010731 11.756744592 0.0 0.0 0.0 0.00104170622599 0.000293591693842 0.000882277745465
134 1 8.637124082 2.079010731 11.756744592 0.0 0.0 0.0 -0.00020553264889 1.55854735983e-05 0.000107672876897
135 1 19.792338067 8.519476045 11.756744592 0.0 0.0 0.0 -0.000192508774435 -0.000197301757143 -3.92516513235e-05
136 1 12.355528696 8.519476045 11.756744592 0.0 0.0 0.0 0.000321192888538 -0.000109984554233 -0.000117419720044
137 1 1.632167798 2.826994038 3.541396624 0.0 0.0 0.0 0.000479254732641 -0.000170090589208 -0.00062010201567
138 1 9.06897717 2.826994038 3.541396624 0.0 0.0 0.0 -0.000114061004736 -2.98841106924e-06 1.85767889827e-05
139 1 5.350572412 9.267459352 3.541396624 0.0 0.0 0.0 -0.000230221680177 -0.000111123800596 0.000221663311896
140 1 12.787381784 9.267459352 3.541396624 0.0 0.0 0.0 0.00029043851522 8.90485229971e-05 0.000176680149335
141 1 1.632167841 2.826994031 10.478246764 0.0 0.0 0.0 0.000232543711242 -1.47293646244e-05 0.000416943950266
142 1 9.068977213 2.826994031 10.478246764 0.0 0.0 0.0 -7.38316300809e-05 9.36219512146e-06 8.49844463429e-05
143 1 5.350572456 9.267459345 10.478246764 0.0 0.0 0.0 -0.000147306244445 -5.27544926285e-05 -8.37703808038e-05
144 1 12.787381827 9.267459345 10.478246764 0.0 0.0 0.0 0.000192936580566 0.000103397822395 -3.02982171005e-05
145 2 12.258736453 12.880930313 6.469757221 0.0 0.0 0.0 -0.00010982090422 -0.000275589474661 4.8503588454e-05
146 2 19.695545825 12.880930313 6.469757221 0.0 0.0 0.0 5.55473756932e-05 -0.000129105356921 -0.000101876870023
147 2 8.540331839 6.440464999 6.469757221 0.0 0.0 0.0 2.18404116183e-05 0.000217397172096 -8.7378483523e-05
148 2 15.97714121 6.440464999 6.469757221 0.0 0.0 0.0 -0.000117016801888 0.000137347212052 -1.02796467655e-05
149 2 12.258736496 12.880930306 13.40660736 0.0 0.0 0.0 0.0319319209614 -0.00819065793604 -0.0125722144656
150 2 19.695545868 12.880930306 13.40660736 0.0 0.0 0.0 0.000763228691177 -0.000517277018395 0.000119049007775
151 2 8.540331882 6.440464992 13.40660736 0.0 0.0 0.0 0.000155216323248 0.000785952965227 2.91423158625e-05
152 2 15.977141254 6.440464992 13.40660736 0.0 0.0 0.0 -0.00028313131496 0.000534632061235 -0.00011673614534
153 1 5.331166141 0.766954845 6.788243965 0.0 0.0 0.0 -8.13553955299e-05 9.91908476741e-05 -7.28921396631e-05
154 1 12.767975512 0.766954845 6.788243965 0.0 0.0 0.0 -6.99023223205e-05 9.66579099217e-05 -1.37555024831e-05
155 1 9.049570755 7.207420159 6.788243965 0.0 0.0 0.0 -6.40479397428e-05 -7.69344332675e-05 3.00961299842e-06
156 1 16.486380127 7.207420159 6.788243965 0.0 0.0 0.0 -5.59690832156e-05 -4.94494258319e-05 -2.95678533016e-05
157 1 5.331166184 0.766954838 13.725094105 0.0 0.0 0.0 -0.00270085191561 -0.000105043262649 0.000519759598669
158 1 12.767975556 0.766954838 13.725094105 0.0 0.0 0.0 -0.000308343413666 0.000475895810543 -7.29575626679e-05
159 1 9.049570798 7.207420151 13.725094105 0.0 0.0 0.0 -9.33325664399e-05 -0.000573312221728 -9.38959635567e-05
160 1 16.48638017 7.207420151 13.725094105 0.0 0.0 0.0 -4.01874997896e-05 -0.000186301790892 -1.73058529185e-05
161 1 16.486380702 5.673510068 6.788243516 0.0 0.0 0.0 -2.04593084046e-05 -8.60917140733e-05 -4.61520669015e-05
162 1 9.04957133 5.673510068 6.788243516 0.0 0.0 0.0 -9.41288320399e-05 -0.000105705221081 -1.98176181239e-05
163 1 20.204785316 12.113975382 6.788243516 0.0 0.0 0.0 -0.000120965012472 3.26307728496e-05 7.33377679451e-06
164 1 12.767975944 12.113975382 6.788243516 0.0 0.0 0.0 -1.91430864983e-05 0.000100509299744 -2.79674759259e-05
165 1 16.486380745 5.673510061 13.725093655 0.0 0.0 0.0 0.000126086823864 -0.000482585681127 3.79906967405e-05
166 1 9.049571373 5.673510061 13.725093655 0.0 0.0 0.0 -0.000149010186447 -0.000282626167119 -2.47221903862e-05
167 1 20.204785359 12.113975375 13.725093655 0.0 0.0 0.0 -0.000816697434942 0.000146660257394 -0.000137734520888
168 1 12.767975987 12.113975375 13.725093655 0.0 0.0 0.0 0.000225046243645 0.00153769281474 -0.000111222886362
169 2 12.462655523 4.175912014 6.46975888 0.0 0.0 0.0 -5.53058074072e-05 -5.99511583472e-06 -4.96689318479e-05
170 2 5.025846151 4.175912014 6.46975888 0.0 0.0 0.0 0.00011757234344 0.000132606620574 5.57377801035e-05
171 2 16.181060137 10.616377328 6.46975888 0.0 0.0 0.0 8.40704669012e-05 -8.67119670213e-05 -4.96395113333e-05
172 2 8.744250765 10.616377328 6.46975888 0.0 0.0 0.0 -4.81809239432e-05 -0.000155097230035 -0.000244908922505
173 2 12.462655566 4.175912007 13.406609019 0.0 0.0 0.0 -0.000221080081006 5.31990910865e-05 -6.39782846779e-05
174 2 5.025846194 4.175912007 13.406609019 0.0 0.0 0.0 0.000819648783019 0.00135245207517 -0.000386745477197
175 2 16.18106018 10.616377321 13.406609019 0.0 0.0 0.0 0.000218570500675 -0.000201527406984 -6.41202702457e-05
176 2 8.744250808 10.616377321 13.406609019 0.0 0.0 0.0 0.0255197686943 0.0548076505098 0.023650658726
177 1 4.107023344 4.233448053 6.788243333 0.0 0.0 0.0 7.49726361179e-06 -0.000128548897439 -6.42080605073e-05
178 1 11.543832716 4.233448053 6.788243333 0.0 0.0 0.0 1.69721899813e-05 -9.16538739113e-05 -1.89175914714e-05
179 1 7.825427958 10.673913367 6.788243333 0.0 0.0 0.0 -9.38420158578e-06 -3.56419789093e-05 3.30393380659e-05
180 1 15.26223733 10.673913367 6.788243333 0.0 0.0 0.0 1.47783549547e-05 -1.9785420384e-05 -2.39910464765e-05
181 1 4.107023387 4.233448046 13.725093473 0.0 0.0 0.0 -0.000273242628639 -0.00115646930624 0.000170873462947
182 1 11.543832759 4.233448046 13.725093473 0.0 0.0 0.0 2.91709167562e-05 -0.000135635893498 -2.28242720053e-05
183 1 7.825428001 10.67391336 13.725093473 0.0 0.0 0.0 -0.00226095822136 -0.00121068130785 -0.000332338333352
184 1 15.262237373 10.67391336 13.725093473 0.0 0.0 0.0 1.03990492159e-06 0.000119650318032 -1.14477276309e-05
185 1 12.872237203 5.00040447 6.78824545 0.0 0.0 0.0 0.000105887927939 -8.52436621455e-05 -3.14645776085e-05
186 1 5.435427832 5.00040447 6.78824545 0.0 0.0 0.0 -1.9293353861e-05 -0.000162688033722 -4.3401553365e-05
187 1 16.590641818 11.440869783 6.78824545 0.0 0.0 0.0 -1.36551676897e-05 -2.04356725694e-05 -3.03773985171e-05
188 1 9.153832446 11.440869783 6.78824545 0.0 0.0 0.0 0.000128842943507 8.60811085441e-05 1.4814770252e-05
189 1 12.872237247 5.000404462 13.72509559 0.0 0.0 0.0 0.000234750003476 -0.000173963507586 -2.39546076635e-05
190 1 5.435427875 5.000404462 13.72509559 0.0 0.0 0.0 -0.000221395252096 -0.000497543556088 -1.0125340407e-05
191 1 16.590641861 11.440869776 13.72509559 0.0 0.0 0.0 -0.000152928669263 3.7383254313e-05 -2.6107416037e-05
192 1 9.153832489 11.440869776 13.72509559 0.0 0.0 0.0 -0.00788270409898 -0.0162439113894 -0.0111902792666
193 2 1.307441393 2.264553585 6.469759523 0.0 0.0 0.0 -0.000190443141918 -0.000152986100057 4.19914063366e-05
194 2 8.744250764 2.264553585 6.469759523 0.0 0.0 0.0 0.000170947899214 4.80157846472e-05 -1.66617551766e-05
195 2 5.025846007 8.705018899 6.469759523 0.0 0.0 0.0 0.000170707899733 0.000209924666062 -9.3470008218e-05
196 2 12.462655379 8.705018899 6.469759523 0.0 0.0 0.0 -0.000145858808637 6.59187806972e-05 -0.000107870375525
197 2 1.307441436 2.264553578 13.406609663 0.0 0.0 0.0 -0.0222156077344 0.0287173509713 -0.0139715535607
198 2 8.744250808 2.264553578 13.406609663 0.0 0.0 0.0 0.000598185046759 0.000101403439972 -0.000122908765539
199 2 5.02584605 8.705018892 13.406609663 0.0 0.0 0.0 0.000594503911533 0.000610372145102 2.23631361544e-05
200 2 12.462655422 8.705018892 13.406609663 0.0 0.0 0.0 -0.000829922295008 0.000484135701664 0.000111236304794
201 1 1.717022388 1.440060952 6.788246651 0.0 0.0 0.0 0.000146616548767 0.00019900892054 -5.76440872578e-05
202 1 9.15383176 1.440060952 6.788246651 0.0 0.0 0.0 -2.27508195982e-05 7.68255572101e-05 -3.84168049265e-05
203 1 5.435427002 7.880526266 6.788246651 0.0 0.0 0.0 -2.38461535387e-05 -5.78931089757e-05 -2.43268505174e-05
204 1 12.872236374 7.880526266 6.788246651 0.0 0.0 0.0 0.000114604027933 1.6909413469e-05 -2.64005870666e-05
205 1 1.717022431 1.440060945 13.725096791 0.0 0.0 0.0 0.0129137264482 -0.00417309334603 0.00600694691292
206 1 9.153831803 1.440060945 13.725096791 0.0 0.0 0.0 -0.000201472766092 0.00011232069915 -2.21811260284e-05
207 1 5.435427045 7.880526258 13.725096791 0.0 0.0 0.0 -0.000216356675332 -0.000332125371671 -4.94552688692e-05
208 1 12.872236417 7.880526258 13.725096791 0.0 0.0 0.0 0.000275258540526 -0.000108048360666 -4.04776071858e-05
209 1 15.262237079 2.207018097 6.788243067 0.0 0.0 0.0 9.41875559943e-05 0.000146369842147 -2.50865756244e-05
210 1 7.825427708 2.207018097 6.788243067 0.0 0.0 0.0 -6.84256773263e-05 5.43134300771e-05 -4.0546360331e-05
211 1 18.980641693 8.647483411 6.788243067 0.0 0.0 0.0 -4.97517098903e-05 -8.49548120263e-06 -1.32671606384e-05
212 1 11.543832322 8.647483411 6.788243067 0.0 0.0 0.0 8.77018688208e-05 3.94481298144e-05 1.37531545618e-05
213 1 15.262237122 2.207018089 13.725093207 0.0 0.0 0.0 0.00111016688816 0.000866354890178 -0.000114075763249
214 1 7.825427751 2.207018089 13.725093207 0.0 0.0 0.0 -0.000474166904323 -3.16471738819e-05 4.15356764879e-05
215 1 18.980641736 8.647483403 13.725093207 0.0 0.0 0.0 -0.000184857983697 -0.000137940018232 -2.17552108645e-05
216 1 11.543832365 8.647483403 13.725093207 0.0 0.0 0.0 0.000590188596815 -0.000533170397563 -0.000146059204266
217 2 10.05169036 12.880930562 3.001331049 0.0 0.0 0.0 -0.00419436247286 -0.00791601984913 0.00303694842377
218 2 17.488499731 12.880930562 3.001331049 0.0 0.0 0.0 0.000389203613789 -0.000136580058259 -4.1919484453e-05
219 2 6.333285745 6.440465248 3.001331049 0.0 0.0 0.0 0.000389263898375 0.000589996298744 -4.14346960985e-05
220 2 13.770095117 6.440465248 3.001331049 0.0 0.0 0.0 -0.000239975458654 0.000226700879679 -4.23580068722e-05
221 2 10.051690403 12.880930555 9.938181189 0.0 0.0 0.0 -0.000483939653228 -0.000922057462764 -3.79721334026e-05
222 2 17.488499774 12.880930555 9.938181189 0.0 0.0 0.0 0.000265894432717 -9.4742052172e-05 -4.35825074788e-05
223 2 6.333285789 6.440465241 9.938181189 0.0 0.0 0.0 0.000265891108412 0.000376453800274 -4.40695543554e-05
224 2 13.77009516 6.440465241 9.938181189 0.0 0.0 0.0 -0.000142166637201 0.000140840921524 -4.31064530768e-05
225 1 13.26085702 5.67351034 3.319819519 0.0 0.0 0.0 0.000190264623702 -0.00010656427681 -4.17777835362e-05
226 1 5.824047648 5.67351034 3.319819519 0.0 0.0 0.0 -0.000106298136966 -0.000302680049818 -0.000126087092823
227 1 16.979261634 12.113975653 3.319819519 0.0 0.0 0.0 -8.06417193962e-05 4.51061181942e-05 -3.50085151438e-05
228 1 9.542452262 12.113975653 3.319819519 0.0 0.0 0.0 0.000495306742067 0.000644649833596 0.00197480458288
229 1 13.260857063 5.673510332 10.256669659 0.0 0.0 0.0 0.000159634890619 -8.37032538427e-05 -1.88500842006e-05
230 1 5.824047691 5.673510332 10.256669659 0.0 0.0 0.0 -5.89996743882e-05 -0.000222624875818 5.01269400776e-05
231 1 16.979261677 12.113975646 10.256669659 0.0 0.0 0.0 -4.59210744691e-05 3.13835523751e-05 -2.44698249004e-05
232 1 9.542452305 12.113975646 10.256669659 0.0 0.0 0.0 0.000320705613464 0.000415298613088 -0.000538616402472
233 1 2.105642892 0.766955018 3.319818703 0.0 0.0 0.0 0.000908581909572 0.000926631469938 -0.00115412227388
234 1 9.542452263 0.766955018 3.319818703 0.0 0.0 0.0 -0.00010296435002 6.76520332403e-05 -5.86159124432e-05
235 1 5.824047506 7.207420332 3.319818703 0.0 0.0 0.0 -0.000106819595975 -0.000243084933897 2.57339790967e-05
236 1 13.260856878 7.207420332 3.319818703 0.0 0.0 0.0 0.000211429366429 -8.40396912057e-05 2.15548975542e-05
237 1 2.105642935 0.766955011 10.256668843 0.0 0.0 0.0 0.000396353678916 0.000495862582998 0.000261312825467
238 1 9.542452307 0.766955011 10.256668843 0.0 0.0 0.0 -6.08246722166e-05 5.82587802921e-05 3.60264809993e-06
239 1 5.824047549 7.207420325 10.256668843 0.0 0.0 0.0 -6.27887710132e-05 -0.000177019154471 -6.65740391066e-05
240 1 13.260856921 7.207420325 10.256668843 0.0 0.0 0.0 0.000172392609793 -5.38139528197e-05 -6.2575186806e-05
241 2 13.566178647 2.264553318 3.001331607 0.0 0.0 0.0 -0.00030985105312 -0.000461275550557 -4.73028690714e-05
242 2 6.129369276 2.264553318 3.001331607 0.0 0.0 0.0 0.000877484641164 0.00022432329976 0.000732026390881
243 2 17.284583261 8.705018632 3.001331607 0.0 0.0 0.0 0.000104943385827 0.00026326729627 -4.56954141701e-05
244 2 9.84777389 8.705018632 3.001331607 0.0 0.0 0.0 -0.000309792994153 0.000908809670859 -0.000817304901131
245 2 13.56617869 2.26455331 9.938181747 0.0 0.0 0.0 -0.00017085934258 -0.000217501949962 -4.6336311838e-05
246 2 6.129369319 2.26455331 9.938181747 0.0 0.0 0.0 0.00030097316229 5.49494267587e-05 -0.00048500390455
247 2 17.284583305 8.705018624 9.938181747 0.0 0.0 0.0 6.52442932701e-05 0.000194058068689 -4.71835798052e-05
248 2 9.847773933 8.705018624 9.938181747 0.0 0.0 0.0 -0.000170906721124 0.000328932606688 0.000389139543476
249 1 14.485000752 2.20701716 3.319818255 0.0 0.0 0.0 0.000343179462317 0.000353983908941 -0.000146976727742
250 1 7.048191381 2.20701716 3.319818255 0.0 0.0 0.0 -0.000283317751492 2.41602304915e-05 -0.000175212273054
251 1 18.203405367 8.647482473 3.319818255 0.0 0.0 0.0 -0.000145196702336 -7.70951053546e-05 -2.45194402079e-06
252 1 10.766595995 8.647482473 3.319818255 0.0 0.0 0.0 0.000263698074803 -0.000169369238668 0.000267197229738
253 1 14.485000796 2.207017152 10.256668395 0.0 0.0 0.0 0.000174270183592 0.000244675289754 4.35176331492e-05
254 1 7.048191424 2.207017152 10.256668395 0.0 0.0 0.0 -0.000200580220787 3.70996634073e-05 0.000109343809479
255 1 18.20340541 8.647482466 10.256668395 0.0 0.0 0.0 -0.000112228555287 -4.50423690158e-05 -4.57435968789e-05
256 1 10.766596038 8.647482466 10.256668395 0.0 0.0 0.0 0.000148106167709 -5.18349136442e-05 -0.000231704278981
257 1 5.719786092 1.440061854 3.319818129 0.0 0.0 0.0 -0.000502070641184 0.00018337347829 -0.000648498868584
258 1 13.156595464 1.440061854 3.319818129 0.0 0.0 0.0 -0.00011120371969 0.000303898986213 8.06295036115e-05
259 1 9.438190706 7.880527168 3.319818129 0.0 0.0 0.0 -6.27443761746e-05 -0.000280320710485 0.000165620065043
260 1 16.875000078 7.880527168 3.319818129 0.0 0.0 0.0 -3.51594452765e-05 -9.34073361032e-05 -5.19876526633e-05
261 1 5.719786135 1.440061847 10.256668269 0.0 0.0 0.0 -0.000212623912595 0.000160588893197 0.000328548048944
262 1 13.156595507 1.440061847 10.256668269 0.0 0.0 0.0 -6.42396529737e-05 0.000211326636741 -9.21064695765e-05
263 1 9.438190749 7.880527161 10.256668269 0.0 0.0 0.0 -4.51474794781e-05 -0.000169520552091 -0.000184816837749
264 1 16.875000121 7.880527161 10.256668269 0.0 0.0 0.0 -4.05277687052e-05 -6.05260645399e-05 1.90992948141e-06
265 2 2.410964342 4.175911908 3.001332195 0.0 0.0 0.0 -0.000307096327297 0.000828309652534 0.000728381268029
266 2 9.847773713 4.175911908 3.001332195 0.0 0.0 0.0 0.000106131710495 0.000179044547138 -4.69570134941e-05
267 2 6.129368956 10.616377222 3.001332195 0.0 0.0 0.0 0.000879016008065 0.000143974403203 -0.000826369079437
268 2 13.566178327 10.616377222 3.001332195 0.0 0.0 0.0 -0.000307052026224 -0.000540714451069 -4.59223833109e-05
269 2 2.410964385 4.175911901 9.938182334 0.0 0.0 0.0 -0.000168560966924 0.000246254398157 -0.00048558924304
270 2 9.847773757 4.175911901 9.938182334 0.0 0.0 0.0 6.6622048785e-05 0.000110380805458 -4.77171256547e-05
271 2 6.129368999 10.616377215 9.938182334 0.0 0.0 0.0 0.000302541415167 -2.69033942194e-05 0.00039116314699
272 2 13.566178371 10.616377215 9.938182334 0.0 0.0 0.0 -0.000168599333243 -0.000298865987544 -4.83000358065e-05
273 1 16.875000507 5.000403535 3.319819181 0.0 0.0 0.0 7.74596515251e-05 -0.000290231848895 -0.000182344814018