ITEM: TIMESTEP
0
ITEM: NUMBER OF ATOMS
288
ITEM: BOX BOUNDS xy xz yz xx yy zz
0.0 14.873618743 7.436809228
0.0 12.880930628 8.6e-08
0.0 13.87370028 -1.5e-08
ITEM: ATOMS id type x y z vx vy vz fx fy fz
1 2 2.338671397 1.12e-07 0.370392751 0.0 0.0 0.0 -0.0569541215624 6.56705190616e-07 0.566063003463
2 2 9.775480768 1.12e-07 0.380392751 0.0 0.0 0.0 2.86390320238e-05 4.98165708938e-07 0.000310059505377
3 2 6.057076011 6.440465426 0.380392751 0.0 0.0 0.0 2.86241349359e-05 4.97435703239e-07 0.000310053824374
4 2 13.493885382 6.440465426 0.380392751 0.0 0.0 0.0 2.86380261186e-05 4.97374746501e-07 0.000310059022329
5 2 2.33867144 1.04e-07 7.317242891 0.0 0.0 0.0 2.87150484322e-05 5.01239815931e-07 -0.00117128140985
6 2 9.775480812 1.04e-07 7.317242891 0.0 0.0 0.0 2.87156266779e-05 5.03795409555e-07 -0.000228701453709
7 2 6.057076054 6.440465418 7.317242891 0.0 0.0 0.0 2.8713600962e-05 5.00565821848e-07 -0.000228700941853
8 2 13.493885426 6.440465418 7.317242891 0.0 0.0 0.0 2.86687956772e-05 5.01762662097e-07 -0.000228687962436
9 1 2.400632363 4.61e-07 1.351465958 0.0 0.0 0.0 -0.0594561765371 -1.98813061912e-06 -0.402470304646
10 1 9.837441735 4.61e-07 1.351465958 0.0 0.0 0.0 4.54942934249e-05 -1.850648516e-06 -8.8670477267e-05
11 1 6.119036977 6.440465774 1.351465958 0.0 0.0 0.0 4.18417735608e-05 2.62250964746e-07 -8.8529812615e-05
12 1 13.555846349 6.440465774 1.351465958 0.0 0.0 0.0 4.18363374085e-05 -3.95827258272e-06 -8.85320698232e-05
13 1 2.400632406 4.53e-07 8.288316098 0.0 0.0 0.0 4.82013529693e-05 -1.84978362175e-06 0.000712224391369
14 1 9.837441778 4.53e-07 8.288316098 0.0 0.0 0.0 3.91623198659e-05 -1.84976105721e-06 0.000151405674016
15 1 6.11903702 6.440465767 8.288316098 0.0 0.0 0.0 4.11605077177e-05 -3.0025794286e-06 0.000151321355656
16 1 13.555846392 6.440465767 8.288316098 0.0 0.0 0.0 4.11607860885e-05 -6.97515115291e-07 0.000151320982199
17 1 10.701141082 12.880930558 0.072968506 0.0 0.0 0.0 0.108862167768 3.97705327288e-07 -0.0876807323295
18 1 18.137950453 12.880930558 0.072968506 0.0 0.0 0.0 8.315445497e-05 4.34738700237e-07 -0.000108180011554
19 1 6.982736468 6.440465244 0.072968506 0.0 0.0 0.0 6.37721952724e-05 1.07066841407e-05 -8.99698570876e-05
20 1 14.419545839 6.440465244 0.072968506 0.0 0.0 0.0 6.37698086442e-05 -9.83691400391e-06 -8.99726412921e-05
21 1 10.701141125 12.880930551 7.009818646 0.0 0.0 0.0 9.02246079859e-05 4.32103116897e-07 0.000635591692584
22 1 18.137950497 12.880930551 7.009818646 0.0 0.0 0.0 5.09824233228e-05 4.31838376507e-07 0.000185520620768
23 1 6.982736511 6.440465237 7.009818646 0.0 0.0 0.0 6.05858467831e-05 -4.92235708192e-06 0.000176037336396
24 1 14.419545882 6.440465237 7.009818646 0.0 0.0 0.0 6.06240753633e-05 5.78544376927e-06 0.00017602679094
25 2 13.704282012 2.025348059 0.380394512 0.0 0.0 0.0 -1.17912324107e-05 2.66623506785e-05 0.00108341109505
26 2 6.26747264 2.025348059 0.380394512 0.0 0.0 0.0 -1.66767469777e-05 2.6679619018e-05 0.0010813551843
27 2 17.422686626 8.465813373 0.380394512 0.0 0.0 0.0 -1.42482397145e-05 2.80820316512e-05 0.000232764407255
28 2 9.985877254 8.465813373 0.380394512 0.0 0.0 0.0 -1.42458624277e-05 3.08892169627e-05 0.0010813551849
29 2 13.704282055 2.025348052 7.317244652 0.0 0.0 0.0 -1.48086820013e-05 2.8457529017e-05 -0.000484046471242
30 2 6.267472684 2.025348052 7.317244652 0.0 0.0 0.0 -1.38072711827e-05 2.84744945169e-05 -0.000482850490454
31 2 17.422686669 8.465813365 7.317244652 0.0 0.0 0.0 -1.43146715137e-05 2.81945848823e-05 -0.000191204559999
32 2 9.985877298 8.465813365 7.317244652 0.0 0.0 0.0 -1.43179837883e-05 2.76099570546e-05 -0.000482857551358
33 1 13.673300338 2.079010187 1.351467718 0.0 0.0 0.0 -0.000419806684133 0.000257499030277 -0.000392930949302
34 1 6.236490966 2.079010187 1.351467718 0.0 0.0 0.0 0.00036608207413 0.000238523029178 -0.000364443372616
35 1 17.391704952 8.519475501 1.351467718 0.0 0.0 0.0 -1.50067640495e-05 2.9258548787e-05 -6.6519432612e-05
36 1 9.95489558 8.519475501 1.351467718 0.0 0.0 0.0 -1.03930394374e-05 -0.000381525915495 -0.000339993802441
37 1 13.673300381 2.07901018 8.288317858 0.0 0.0 0.0 7.69674335961e-05 -2.35121682821e-05 0.000283290082376
38 1 6.236491009 2.07901018 8.288317858 0.0 0.0 0.0 -0.000104031774174 -2.14638114035e-05 0.000274431748345
39 1 17.391704995 8.519475493 8.288317858 0.0 0.0 0.0 -1.3933026718e-05 2.74488894662e-05 0.000123007409259
40 1 9.954895623 8.519475493 8.288317858 0.0 0.0 0.0 -1.53074518917e-05 0.000128514915785 0.000266696881585
41 1 13.241451457 2.826992613 0.072968839 0.0 0.0 0.0 6.32929799546e-05 -4.03160409591e-06 -0.000190667619505
42 1 5.804642085 2.826992613 0.072968839 0.0 0.0 0.0 -0.000182766264038 -6.82849980991e-05 -0.000420187123368
43 1 16.959856071 9.267457927 0.072968839 0.0 0.0 0.0 -3.50044128558e-05 6.47775906615e-05 -6.01003413857e-05
44 1 9.523046699 9.267457927 0.072968839 0.0 0.0 0.0 1.4129577161e-05 0.000478167830897 -0.000934541628947
45 1 13.2414515 2.826992606 7.009818978 0.0 0.0 0.0 -5.99431245138e-05 8.01428174554e-05 0.00022893448151
46 1 5.804642128 2.826992606 7.009818978 0.0 0.0 0.0 3.11230876641e-06 8.86916281249e-05 0.00029193316547
47 1 16.959856114 9.26745792 7.009818978 0.0 0.0 0.0 -2.81592497874e-05 5.74400297563e-05 0.000156067303767
48 1 9.523046743 9.26745792 7.009818978 0.0 0.0 0.0 -3.63924646778e-05 6.78602322723e-06 0.000383743267183
49 2 17.422687622 4.415117298 0.380394729 0.0 0.0 0.0 -1.45055197595e-05 -3.11918337408e-05 0.00108231882171
50 2 9.985878251 4.415117298 0.380394729 0.0 0.0 0.0 -1.45092073797e-05 -2.83858113868e-05 0.000233729207342
51 2 21.141092236 10.855582612 0.380394729 0.0 0.0 0.0 -1.20353883939e-05 -2.69503967598e-05 0.00108438030698
52 2 13.704282865 10.855582612 0.380394729 0.0 0.0 0.0 -1.69398779092e-05 -2.69833222981e-05 0.00108232160174
53 2 17.422687665 4.415117291 7.317244869 0.0 0.0 0.0 -1.45581993499e-05 -2.7892607622e-05 -0.000481889749508
54 2 9.985878294 4.415117291 7.317244869 0.0 0.0 0.0 -1.45750213788e-05 -2.85057934905e-05 -0.000190237399208
55 2 21.14109228 10.855582605 7.317244869 0.0 0.0 0.0 -1.50907119896e-05 -2.88016519479e-05 -0.000483090254537
56 2 13.704282908 10.855582605 7.317244869 0.0 0.0 0.0 -1.40587835015e-05 -2.87960767686e-05 -0.00048189472687
57 1 2.518088606 4.36145465 1.351467896 0.0 0.0 0.0 -1.59957175074e-05 0.000383469223127 -0.000338711844031
58 1 9.954897977 4.36145465 1.351467896 0.0 0.0 0.0 -2.06060362194e-05 -2.73137187856e-05 -6.52387561e-05
59 1 6.23649322 10.801919964 1.351467896 0.0 0.0 0.0 -0.000425409383844 -0.000255557164396 -0.000391649868778
60 1 13.673302591 10.801919964 1.351467896 0.0 0.0 0.0 0.000360481227107 -0.000236578268203 -0.000363162581458
61 1 2.518088649 4.361454643 8.288318036 0.0 0.0 0.0 -2.09110949765e-05 -0.000126571607562 0.000267982915407
62 1 9.95489802 4.361454643 8.288318036 0.0 0.0 0.0 -1.95294933069e-05 -2.55016652787e-05 0.000124290809126
63 1 6.236493263 10.801919957 8.288318036 0.0 0.0 0.0 7.13715998372e-05 2.54602501678e-05 0.000284573895059
64 1 13.673302635 10.801919957 8.288318036 0.0 0.0 0.0 -0.000109634389227 2.34078735123e-05 0.000275717077522
65 1 16.959856167 3.613473172 0.07296928 0.0 0.0 0.0 1.64082738547e-05 -0.000479154725366 -0.000934508201758
66 1 9.523046796 3.613473172 0.07296928 0.0 0.0 0.0 -3.27247308594e-05 -6.57639503712e-05 -6.00687333631e-05
67 1 20.678260782 10.053938486 0.07296928 0.0 0.0 0.0 6.55610174629e-05 3.03006550717e-06 -0.000190638839517
68 1 13.24145141 10.053938486 0.07296928 0.0 0.0 0.0 -0.000180486617159 6.72981181003e-05 -0.000420155323282
69 1 16.959856211 3.613473164 7.00981942 0.0 0.0 0.0 -3.41285497727e-05 -7.79550736763e-06 0.000383763567259
70 1 9.523046839 3.613473164 7.00981942 0.0 0.0 0.0 -2.58831286491e-05 -5.84317286082e-05 0.000156089920696
71 1 20.678260825 10.053938478 7.00981942 0.0 0.0 0.0 -5.76524634621e-05 -8.11054379279e-05 0.000228966330131
72 1 13.241451453 10.053938478 7.00981942 0.0 0.0 0.0 5.3918214327e-06 -8.96722557362e-05 0.000291963315015
73 2 5.098138192 9.1e-08 3.848820961 0.0 0.0 0.0 -0.00164410165679 -9.6696338918e-07 -0.00134864291201
74 2 12.534947564 9.1e-08 3.848820961 0.0 0.0 0.0 0.000456250670982 -9.69831643438e-07 -0.000131840825901
75 2 8.816542806 6.440465404 3.848820961 0.0 0.0 0.0 -1.48252629429e-05 0.000160525215694 -2.6097070532e-05
76 2 16.253352178 6.440465404 3.848820961 0.0 0.0 0.0 -1.48314578563e-05 -0.000162442057487 -2.60897128534e-05
77 2 5.098138235 8.3e-08 10.785671101 0.0 0.0 0.0 0.00159103482198 -9.65688686338e-07 -0.0013492940484
78 2 12.534947607 8.3e-08 10.785671101 0.0 0.0 0.0 -0.000518444537097 -9.65652495966e-07 -0.000129864911257
79 2 8.816542849 6.440465397 10.785671101 0.0 0.0 0.0 -4.64449229684e-05 -0.000162630403519 -2.46518113125e-05
80 2 16.253352221 6.440465397 10.785671101 0.0 0.0 0.0 -4.64514223586e-05 0.000160700106808 -2.46530278388e-05
81 1 12.472986142 12.880930033 4.819894401 0.0 0.0 0.0 0.000244350983709 1.94543400073e-06 0.000549100622949
82 1 19.909795513 12.880930033 4.819894401 0.0 0.0 0.0 -0.000207628352381 1.94565426325e-06 0.000202701482838
83 1 8.754581528 6.440464719 4.819894401 0.0 0.0 0.0 -4.6733892647e-05 -5.90775321031e-05 0.000113889593884
84 1 16.191390899 6.440464719 4.819894401 0.0 0.0 0.0 -4.67291817705e-05 6.29643788878e-05 0.0001138875294
85 1 12.472986185 12.880930026 11.756744541 0.0 0.0 0.0 -0.00170156681631 1.94493893672e-06 0.000568647363487
86 1 19.909795557 12.880930026 11.756744541 0.0 0.0 0.0 0.000284959309485 1.94438140312e-06 -4.81081724413e-05
87 1 8.754581571 6.440464712 11.756744541 0.0 0.0 0.0 -3.29194071111e-05 9.15230781448e-05 -3.65401916193e-05
88 1 16.191390943 6.440464712 11.756744541 0.0 0.0 0.0 -3.29195041988e-05 -8.76349433824e-05 -3.65399857367e-05
89 1 4.172478132 1.2e-08 3.541396305 0.0 0.0 0.0 0.00148594116364 -2.66873912405e-07 0.00186256337716
90 1 11.609287504 1.2e-08 3.541396305 0.0 0.0 0.0 -0.000186624582998 -2.66285832565e-07 2.66309313039e-05
91 1 7.890882746 6.440465326 3.541396305 0.0 0.0 0.0 -7.69059614775e-05 -5.70898684851e-05 3.25190857657e-05
92 1 15.327692118 6.440465326 3.541396305 0.0 0.0 0.0 -7.6904619512e-05 5.65522809965e-05 3.25156477666e-05
93 1 4.172478175 5e-09 10.478246445 0.0 0.0 0.0 -0.000663620726088 -2.68042069303e-07 0.00125139638294
94 1 11.609287547 5e-09 10.478246445 0.0 0.0 0.0 2.11043687937e-05 -2.68062364861e-07 0.00011326929919
95 1 7.890882789 6.440465319 10.478246445 0.0 0.0 0.0 -5.82333970853e-05 4.65201928764e-05 9.95696607767e-05
96 1 15.327692161 6.440465319 10.478246445 0.0 0.0 0.0 -5.82312793529e-05 -4.70569871109e-05 9.95701336595e-05
97 2 12.324550744 4.415115375 3.848820709 0.0 0.0 0.0 0.00014465788753 -0.000117982729462 -2.2507200795e-05
98 2 4.887741372 4.415115375 3.848820709 0.0 0.0 0.0 -0.000229790542823 -0.000444346815616 -0.000128017698084
99 2 16.042955358 10.855580689 3.848820709 0.0 0.0 0.0 -0.000134414142664 4.31365524092e-05 -2.25020580354e-05
100 2 8.606145986 10.855580689 3.848820709 0.0 0.0 0.0 0.000822484583248 0.0013782414408 -0.00135450133584
101 2 12.324550787 4.415115367 10.785670849 0.0 0.0 0.0 -0.000118715661251 7.06914730013e-05 -2.10611753243e-05
102 2 4.887741415 4.415115367 10.785670849 0.0 0.0 0.0 0.000256365453902 0.000397739202897 -0.00012604119429
103 2 16.042955401 10.855580681 10.785670849 0.0 0.0 0.0 0.000160674727407 -9.06174389203e-05 -2.10629146773e-05
104 2 8.606146029 10.855580681 10.785670849 0.0 0.0 0.0 -0.000800636569189 -0.00143304287708 -0.00135563461602
105 1 12.355530592 4.361455296 4.81989398 0.0 0.0 0.0 -2.16772201022e-05 -3.48523710529e-06 0.000116237163136
106 1 4.91872122 4.361455296 4.81989398 0.0 0.0 0.0 9.50488612885e-05 9.77110574383e-05 0.000194311708332
107 1 16.073935206 10.801920609 4.81989398 0.0 0.0 0.0 8.09905863345e-05 -5.92319273616e-05 0.000120103979367
108 1 8.637125834 10.801920609 4.81989398 0.0 0.0 0.0 -0.00013846324821 -0.000280904145416 0.000604766800272
109 1 12.355530635 4.361455288 11.75674412 0.0 0.0 0.0 8.80565090233e-05 -8.00112734033e-05 -3.15926795668e-05
110 1 4.918721263 4.361455288 11.75674412 0.0 0.0 0.0 -0.000118623388753 -0.000289387729641 -4.70954302969e-05
111 1 16.073935249 10.801920602 11.75674412 0.0 0.0 0.0 -6.30445952093e-05 2.48552068672e-06 -3.2263682117e-05
112 1 8.637125877 10.801920602 11.75674412 0.0 0.0 0.0 0.000973002366859 0.00149891823054 0.000727381106466
113 1 12.787381758 3.613470486 3.541396271 0.0 0.0 0.0 -0.000114597221911 5.5930390399e-05 4.6762646305e-05
114 1 5.350572387 3.613470486 3.541396271 0.0 0.0 0.0 0.000272060185047 0.000226586267484 9.44391268343e-05
115 1 16.505786372 10.0539358 3.541396271 0.0 0.0 0.0 5.8143717787e-05 -7.90787462059e-05 3.18291684458e-05
116 1 9.068977001 10.0539358 3.541396271 0.0 0.0 0.0 -0.000158484330621 -0.000939690794661 0.000378603703806
117 1 12.787381802 3.613470479 10.478246411 0.0 0.0 0.0 0.000149137737939 -0.000145415804543 0.0001298682971
118 1 5.35057243 3.613470479 10.478246411 0.0 0.0 0.0 -0.000151141400702 -0.00025652784137 0.000213610676885
119 1 16.505786416 10.053935793 10.478246411 0.0 0.0 0.0 6.3701477699e-06 -3.25510206838e-05 9.14791752244e-05
120 1 9.068977044 10.053935793 10.478246411 0.0 0.0 0.0 8.74696046338e-05 0.000398325119557 0.000434948055986
121 2 16.042954883 2.025349614 3.848821218 0.0 0.0 0.0 0.000823585695898 -0.00137770060037 -0.00135458894884
122 2 8.606145512 2.025349614 3.848821218 0.0 0.0 0.0 -0.000133300689093 -4.25838713998e-05 -2.25980143998e-05
123 2 19.761359497 8.465814928 3.848821218 0.0 0.0 0.0 0.000145775897945 0.000118545272173 -2.25960309165e-05
124 2 12.324550126 8.465814928 3.848821218 0.0 0.0 0.0 -0.000228689649452 0.00044488839596 -0.000128099911919
125 2 16.042954927 2.025349607 10.785671358 0.0 0.0 0.0 -0.000799539083245 0.0014336045279 -0.00135571595856
126 2 8.606145555 2.025349607 10.785671358 0.0 0.0 0.0 0.000161793395889 9.11976448664e-05 -2.11465942929e-05
127 2 19.761359541 8.46581492 10.785671358 0.0 0.0 0.0 -0.00011758126731 -7.00727310021e-05 -2.11549126951e-05
128 2 12.324550169 8.46581492 10.785671358 0.0 0.0 0.0 0.000257503247382 -0.000397113178273 -0.000126127649044
129 1 16.07393341 2.079010738 4.819894452 0.0 0.0 0.0 -0.000133662324584 0.000277909157543 0.000604880683328
130 1 8.637124038 2.079010738 4.819894452 0.0 0.0 0.0 8.57938947904e-05 5.62380645869e-05 0.000120220394899
131 1 19.792338024 8.519476052 4.819894452 0.0 0.0 0.0 -1.68783725636e-05 4.84297962539e-07 0.000116350468224
132 1 12.355528653 8.519476052 4.819894452 0.0 0.0 0.0 9.9848344664e-05 -0.000100711655379 0.000194424773241
133 1 16.073933453 2.079010731 11.756744592 0.0 0.0 0.0 0.000977804608321 -0.00150191522024 0.000727490206933
134 1 8.637124082 2.079010731 11.756744592 0.0 0.0 0.0 -5.82458806557e-05 -5.48634107771e-06 -3.21536426687e-05
135 1 19.792338067 8.519476045 11.756744592 0.0 0.0 0.0 9.28560672736e-05 7.70067053202e-05 -3.14819083271e-05
136 1 12.355528696 8.519476045 11.756744592 0.0 0.0 0.0 -0.000113826679281 0.000286381522185 -4.69869260615e-05
137 1 1.632167798 2.826994038 3.541396624 0.0 0.0 0.0 -0.000160354870474 0.000941820583579 0.000378711734997
138 1 9.06897717 2.826994038 3.541396624 0.0 0.0 0.0 5.62633851048e-05 8.11941107831e-05 3.19430827158e-05
139 1 5.350572412 9.267459352 3.541396624 0.0 0.0 0.0 -0.000116477622414 -5.38166983908e-05 4.6871047499e-05
140 1 12.787381784 9.267459352 3.541396624 0.0 0.0 0.0 0.000270189726554 -0.00022445602152 9.45419106288e-05
141 1 1.632167841 2.826994031 10.478246764 0.0 0.0 0.0 8.55964415581e-05 -0.00039620881023 0.000435056591118
142 1 9.068977213 2.826994031 10.478246764 0.0 0.0 0.0 4.48567492055e-06 3.46515732767e-05 9.15907866762e-05
143 1 5.350572456 9.267459345 10.478246764 0.0 0.0 0.0 0.000147237985187 0.000147486861376 0.000129988102259
144 1 12.787381827 9.267459345 10.478246764 0.0 0.0 0.0 -0.000153042404484 0.000258597507573 0.000213728277624
145 2 12.258736453 12.880930313 6.469757221 0.0 0.0 0.0 -0.000235323250441 -7.04663571836e-07 -0.000931067864729
146 2 19.695545825 12.880930313 6.469757221 0.0 0.0 0.0 6.44189444868e-05 -7.24735689682e-07 -0.000435525712599
147 2 8.540331839 6.440464999 6.469757221 0.0 0.0 0.0 -4.09551062977e-05 4.36483046718e-05 -0.00028801020583
148 2 15.97714121 6.440464999 6.469757221 0.0 0.0 0.0 -4.09168299968e-05 -4.50627506632e-05 -0.000287995696211
149 2 12.258736496 12.880930306 13.40660736 0.0 0.0 0.0 0.0248567889507 -7.09414271475e-07 0.000869433751624
150 2 19.695545868 12.880930306 13.40660736 0.0 0.0 0.0 -0.000378315996335 -7.02012249536e-07 0.000546046123639
151 2 8.540331882 6.440464992 13.40660736 0.0 0.0 0.0 -5.40762093041e-05 -8.47142130816e-05 0.000239147814956
152 2 15.977141254 6.440464992 13.40660736 0.0 0.0 0.0 -5.40816806856e-05 8.325411291e-05 0.000239147962408
153 1 5.331166141 0.766954845 6.788243965 0.0 0.0 0.0 -7.82565864399e-06 4.14337622553e-05 0.000332303664882
154 1 12.767975512 0.766954845 6.788243965 0.0 0.0 0.0 -0.00010163346975 2.78330539378e-05 0.000202048862491
155 1 9.049570755 7.207420159 6.788243965 0.0 0.0 0.0 -6.52782394688e-05 -1.25180713895e-05 0.000139349351569
156 1 16.486380127 7.207420159 6.788243965 0.0 0.0 0.0 -5.90645477284e-05 2.12618704434e-05 7.83040410748e-05
157 1 5.331166184 0.766954838 13.725094105 0.0 0.0 0.0 -0.000510089804773 -0.000344971128927 -0.00133223597838
158 1 12.767975556 0.766954838 13.725094105 0.0 0.0 0.0 0.000102927885525 -2.17588334789e-05 -0.000445830556225
159 1 9.049570798 7.207420151 13.725094105 0.0 0.0 0.0 -5.07143745981e-05 9.13691678581e-05 -0.000258750791051
160 1 16.48638017 7.207420151 13.725094105 0.0 0.0 0.0 -6.4753185048e-05 1.13900744386e-05 -0.000141118703321
161 1 16.486380702 5.673510068 6.788243516 0.0 0.0 0.0 -6.54087157139e-05 1.23974945589e-05 0.000141901896608
162 1 9.04957133 5.673510068 6.788243516 0.0 0.0 0.0 -5.91616899887e-05 -2.14075565521e-05 8.08735496363e-05
163 1 20.204785316 12.113975382 6.788243516 0.0 0.0 0.0 -0.000101758533501 -2.79496288004e-05 0.000204603859253
164 1 12.767975944 12.113975382 6.788243516 0.0 0.0 0.0 -7.93825401146e-06 -4.1567550338e-05 0.000334865733386
165 1 16.486380745 5.673510061 13.725093655 0.0 0.0 0.0 -5.08379750379e-05 -9.14853345147e-05 -0.000256193651285
166 1 9.049571373 5.673510061 13.725093655 0.0 0.0 0.0 -6.48761655512e-05 -1.15052534513e-05 -0.000138562172297
167 1 20.204785359 12.113975375 13.725093655 0.0 0.0 0.0 0.00010282035059 2.16169140221e-05 -0.000443263617454
168 1 12.767975987 12.113975375 13.725093655 0.0 0.0 0.0 -0.000510196999568 0.000344830211235 -0.0013296675906
169 2 12.462655523 4.175912014 6.46975888 0.0 0.0 0.0 5.38046678673e-05 -6.63639019726e-05 -0.000294056193549
170 2 5.025846151 4.175912014 6.46975888 0.0 0.0 0.0 -3.67545135282e-05 -0.000135034308404 -0.000440000383582
171 2 16.181060137 10.616377328 6.46975888 0.0 0.0 0.0 -2.27925178718e-05 -2.22090628182e-05 -0.000294233155493
172 2 8.744250765 10.616377328 6.46975888 0.0 0.0 0.0 0.000112935018359 0.000123839813693 -0.000940490404443
173 2 12.462655566 4.175912007 13.406609019 0.0 0.0 0.0 -5.01117622654e-05 8.66572300549e-06 0.000232555755275
174 2 5.025846194 4.175912007 13.406609019 0.0 0.0 0.0 0.000182093819693 0.000244775553153 0.000535569286383
175 2 16.18106018 10.616377321 13.406609019 0.0 0.0 0.0 9.48766637602e-05 -7.48807065384e-05 0.000233088529057
176 2 8.744250808 10.616377321 13.406609019 0.0 0.0 0.0 -0.0105160694298 -0.022057714575 0.000982570677549
177 1 4.107023344 4.233448053 6.788243333 0.0 0.0 0.0 2.68185249028e-05 -1.87135924522e-05 0.000217894449645
178 1 11.543832716 4.233448053 6.788243333 0.0 0.0 0.0 8.70233147354e-06 -6.01606843287e-05 8.36382458635e-05
179 1 7.825427958 10.673913367 6.788243333 0.0 0.0 0.0 -3.11143678509e-05 -9.67608500586e-05 0.000323143108522
180 1 15.26223733 10.673913367 6.788243333 0.0 0.0 0.0 4.08802951895e-05 -7.28818944262e-05 0.000140325860838
181 1 4.107023387 4.233448046 13.725093473 0.0 0.0 0.0 -4.5434392331e-05 -0.000245104091974 -0.000481304795723
182 1 11.543832759 4.233448046 13.725093473 0.0 0.0 0.0 2.27461927521e-05 -6.28133182745e-05 -0.000139053289593
183 1 7.825428001 10.67391336 13.725093473 0.0 0.0 0.0 0.000421117493274 6.09187941105e-05 -0.0011837166653
184 1 15.262237373 10.67391336 13.725093473 0.0 0.0 0.0 -5.14382676241e-05 -3.31050017898e-05 -0.000247801166166
185 1 12.872237203 5.00040447 6.78824545 0.0 0.0 0.0 4.06343797758e-05 -4.44244566357e-05 9.39986801576e-05
186 1 5.435427832 5.00040447 6.78824545 0.0 0.0 0.0 5.45169418201e-05 -3.88492794177e-05 0.000105711526964
187 1 16.590641818 11.440869783 6.78824545 0.0 0.0 0.0 5.35796676264e-05 -5.31222458122e-05 9.0651403519e-05
188 1 9.153832446 11.440869783 6.78824545 0.0 0.0 0.0 2.8045302291e-05 -9.00524513506e-05 0.000534506684333
189 1 12.872237247 5.000404462 13.72509559 0.0 0.0 0.0 5.97780505492e-05 -6.33050227686e-05 -0.000178894857936
190 1 5.435427875 5.000404462 13.72509559 0.0 0.0 0.0 3.71551749781e-05 -6.59155263495e-05 -0.000199767706836
191 1 16.590641861 11.440869776 13.72509559 0.0 0.0 0.0 3.47724680821e-05 -4.63926181764e-05 -0.000172804815537
192 1 9.153832489 11.440869776 13.72509559 0.0 0.0 0.0 0.0052502799326 0.00990446716197 -0.00687781763153
193 2 1.307441393 2.264553585 6.469759523 0.0 0.0 0.0 0.000110688685072 -0.000122472806444 -0.000940554601155
194 2 8.744250764 2.264553585 6.469759523 0.0 0.0 0.0 -2.4977629956e-05 2.35706604167e-05 -0.000294307803124
195 2 5.025846007 8.705018899 6.469759523 0.0 0.0 0.0 5.15658946545e-05 6.77640749101e-05 -0.0002941276922
196 2 12.462655379 8.705018899 6.469759523 0.0 0.0 0.0 -3.9005947913e-05 0.000136440338582 -0.000440077614151
197 2 1.307441436 2.264553578 13.406609663 0.0 0.0 0.0 -0.0105183061526 0.0220590891764 0.000982497798359
198 2 8.744250808 2.264553578 13.406609663 0.0 0.0 0.0 9.26323859079e-05 7.62610866802e-05 0.000233006935138
199 2 5.02584605 8.705018892 13.406609663 0.0 0.0 0.0 -5.23368297639e-05 -7.31961978143e-06 0.00023248328735
200 2 12.462655422 8.705018892 13.406609663 0.0 0.0 0.0 0.000179862886209 -0.000243422979347 0.000535497313698
201 1 1.717022388 1.440060952 6.788246651 0.0 0.0 0.0 2.85477473182e-05 9.18606145022e-05 0.000531180254621
202 1 9.15383176 1.440060952 6.788246651 0.0 0.0 0.0 5.40712292107e-05 5.49443272275e-05 8.73203464431e-05
203 1 5.435427002 7.880526266 6.788246651 0.0 0.0 0.0 4.11375735169e-05 4.6214839067e-05 9.06788951866e-05
204 1 12.872236374 7.880526266 6.788246651 0.0 0.0 0.0 5.50313310454e-05 4.0627646094e-05 0.0001023961411
205 1 1.717022431 1.440060945 13.725096791 0.0 0.0 0.0 0.00525078716953 -0.00990265452345 -0.00688115776422
206 1 9.153831803 1.440060945 13.725096791 0.0 0.0 0.0 3.52816367683e-05 4.8189498672e-05 -0.000176125418835
207 1 5.435427045 7.880526258 13.725096791 0.0 0.0 0.0 6.02751439615e-05 6.51323968648e-05 -0.000182226453845
208 1 12.872236417 7.880526258 13.725096791 0.0 0.0 0.0 3.76508597101e-05 6.77411381461e-05 -0.000203098161242
209 1 15.262237079 2.207018097 6.788243067 0.0 0.0 0.0 -3.31569667182e-05 9.49189687114e-05 0.000326842260191
210 1 7.825427708 2.207018097 6.788243067 0.0 0.0 0.0 3.87993603945e-05 7.10347879534e-05 0.000144040309165
211 1 18.980641693 8.647483411 6.788243067 0.0 0.0 0.0 6.65931575194e-06 5.831316535e-05 8.73401622701e-05
212 1 11.543832322 8.647483411 6.788243067 0.0 0.0 0.0 2.47747399039e-05 1.68687518102e-05 0.000221595968518
213 1 15.262237122 2.207018089 13.725093207 0.0 0.0 0.0 0.000419063357734 -6.27611472456e-05 -0.00118000880923
214 1 7.825427751 2.207018089 13.725093207 0.0 0.0 0.0 -5.34902977336e-05 3.12626430067e-05 -0.000244096514115
215 1 18.980641736 8.647483403 13.725093207 0.0 0.0 0.0 2.06926266257e-05 6.09722294566e-05 -0.000135347810498
216 1 11.543832365 8.647483403 13.725093207 0.0 0.0 0.0 -4.74866082525e-05 0.000243262531965 -0.000477600258241
217 2 10.05169036 12.880930562 3.001331049 0.0 0.0 0.0 -0.00618920252394 1.18959334991e-06 -0.0660558057973
218 2 17.488499731 12.880930562 3.001331049 0.0 0.0 0.0 4.88082229665e-05 1.20119084356e-06 3.89860732906e-05
219 2 6.333285745 6.440465248 3.001331049 0.0 0.0 0.0 4.92596184736e-05 9.69102561508e-07 3.89670315503e-05
220 2 13.770095117 6.440465248 3.001331049 0.0 0.0 0.0 4.9260294108e-05 1.4532866995e-06 3.89662666316e-05
221 2 10.051690403 12.880930555 9.938181189 0.0 0.0 0.0 4.40045248567e-05 1.17766579776e-06 -0.00259558914385
222 2 17.488499774 12.880930555 9.938181189 0.0 0.0 0.0 4.97529365704e-05 1.18094830946e-06 -0.000160352600995
223 2 6.333285789 6.440465241 9.938181189 0.0 0.0 0.0 4.93470384541e-05 1.51257262865e-06 -0.000160351896302
224 2 13.77009516 6.440465241 9.938181189 0.0 0.0 0.0 4.9385426576e-05 8.3915121907e-07 -0.000160368226718
225 1 13.26085702 5.67351034 3.319819519 0.0 0.0 0.0 2.25384995179e-05 1.94704554332e-05 -4.9122392238e-05
226 1 5.824047648 5.67351034 3.319819519 0.0 0.0 0.0 0.000110961038112 6.53926569077e-05 -4.84022086298e-05
227 1 16.979261634 12.113975653 3.319819519 0.0 0.0 0.0 0.000100353760993 -3.32525802203e-05 -4.92223729307e-05
228 1 9.542452262 12.113975653 3.319819519 0.0 0.0 0.0 -0.000805691429318 -0.00181922997794 0.00237838710518
229 1 13.260857063 5.673510332 10.256669659 0.0 0.0 0.0 9.38650062461e-05 -4.73933439418e-05 1.58681110623e-05
230 1 5.824047691 5.673510332 10.256669659 0.0 0.0 0.0 2.08641600317e-05 -8.4669415249e-05 2.34449491654e-05
231 1 16.979261677 12.113975646 10.256669659 0.0 0.0 0.0 2.90499360256e-05 -3.47326212695e-06 1.4522803656e-05
232 1 9.542452305 12.113975646 10.256669659 0.0 0.0 0.0 0.000283588709921 0.000443979525826 0.00131641313337
233 1 2.105642892 0.766955018 3.319818703 0.0 0.0 0.0 -0.000806536615538 0.00181927779669 0.00238236998873
234 1 9.542452263 0.766955018 3.319818703 0.0 0.0 0.0 9.95222671538e-05 3.32827414669e-05 -4.52490813738e-05
235 1 5.824047506 7.207420332 3.319818703 0.0 0.0 0.0 2.17103446017e-05 -1.94509436374e-05 -4.51535737904e-05
236 1 13.260856878 7.207420332 3.319818703 0.0 0.0 0.0 0.000110132824198 -6.53731310275e-05 -4.44335715172e-05
237 1 2.105642935 0.766955011 10.256668843 0.0 0.0 0.0 0.000282743721202 -0.000443930764727 0.0013203926114
238 1 9.542452307 0.766955011 10.256668843 0.0 0.0 0.0 2.82050185801e-05 3.52028453668e-06 1.85025097832e-05
239 1 5.824047549 7.207420325 10.256668843 0.0 0.0 0.0 9.30350346442e-05 4.74292565611e-05 1.98410004236e-05
240 1 13.260856921 7.207420325 10.256668843 0.0 0.0 0.0 2.00014186259e-05 8.47307143404e-05 2.74343596663e-05
241 2 13.566178647 2.264553318 3.001331607 0.0 0.0 0.0 0.000758335302835 -0.000409462396677 -4.06790380884e-05
242 2 6.129369276 2.264553318 3.001331607 0.0 0.0 0.0 -0.00080050895483 -0.000406324722795 -3.97620218708e-05
243 2 17.284583261 8.705018632 3.001331607 0.0 0.0 0.0 -2.24836569229e-05 4.05866037999e-05 2.43555433468e-05
244 2 9.84777389 8.705018632 3.001331607 0.0 0.0 0.0 -2.38112188499e-05 0.000933182489878 -3.79892211883e-05
245 2 13.56617869 2.26455331 9.938181747 0.0 0.0 0.0 -0.000463220032511 0.000294846292528 -0.000448073463427
246 2 6.129369319 2.26455331 9.938181747 0.0 0.0 0.0 0.000416343827368 0.000293322503823 -0.00044592692834
247 2 17.284583305 8.705018624 9.938181747 0.0 0.0 0.0 -2.30190269177e-05 4.09692610687e-05 -0.000134906208758
248 2 9.847773933 8.705018624 9.938181747 0.0 0.0 0.0 -2.21550627313e-05 -0.000464612023419 -0.000444728175142
249 1 14.485000752 2.20701716 3.319818255 0.0 0.0 0.0 -0.000592063421539 0.00053391637803 0.000181273478844
250 1 7.048191381 2.20701716 3.319818255 0.0 0.0 0.0 0.000158330923655 0.000132313324921 -3.32068283577e-05
251 1 18.203405367 8.647482473 3.319818255 0.0 0.0 0.0 -4.64172837065e-05 5.11504156394e-05 -4.60086071863e-05
252 1 10.766595995 8.647482473 3.319818255 0.0 0.0 0.0 9.97096054817e-05 -0.000344379236077 2.96426542316e-05
253 1 14.485000796 2.207017152 10.256668395 0.0 0.0 0.0 0.000316057781439 -0.000210847945466 0.000307748854744
254 1 7.048191424 2.207017152 10.256668395 0.0 0.0 0.0 -0.000168689556844 -6.25653205657e-06 5.26640090709e-05
255 1 18.20340541 8.647482466 10.256668395 0.0 0.0 0.0 1.08892877829e-05 6.92500666108e-05 7.933055599e-06
256 1 10.766596038 8.647482466 10.256668395 0.0 0.0 0.0 -9.12869025735e-05 0.000343318829162 0.00015226051981
257 1 5.719786092 1.440061854 3.319818129 0.0 0.0 0.0 0.000679443824544 0.000346069021044 0.000206512176868
258 1 13.156595464 1.440061854 3.319818129 0.0 0.0 0.0 -0.000411275413206 0.000136179662538 1.76161342085e-05
259 1 9.438190706 7.880527168 3.319818129 0.0 0.0 0.0 -7.85568571391e-05 -0.000154800766037 -2.81213560349e-05
260 1 16.875000078 7.880527168 3.319818129 0.0 0.0 0.0 -3.49716365958e-05 7.15888416359e-05 -4.35606725993e-05
261 1 5.719786135 1.440061847 10.256668269 0.0 0.0 0.0 -0.00045303900642 -0.000126199225553 0.00032968624162
262 1 13.156595507 1.440061847 10.256668269 0.0 0.0 0.0 0.000217162001861 -2.69201006739e-05 0.000135353685092
263 1 9.438190749 7.880527161 10.256668269 0.0 0.0 0.0 -1.99120604893e-05 0.00021767656428 6.06082618936e-05
264 1 16.875000121 7.880527161 10.256668269 0.0 0.0 0.0 -5.28346875387e-05 2.05657820526e-05 1.01429209909e-05
265 2 2.410964342 4.175911908 3.001332195 0.0 0.0 0.0 -2.20532615042e-05 -0.00093448750843 -3.88772922231e-05
266 2 9.847773713 4.175911908 3.001332195 0.0 0.0 0.0 -2.07326516388e-05 -4.18795026182e-05 2.34742650425e-05
267 2 6.129368956 10.616377222 3.001332195 0.0 0.0 0.0 0.000760115915907 0.000408183196271 -4.15411336592e-05
268 2 13.566178327 10.616377222 3.001332195 0.0 0.0 0.0 -0.000798708898262 0.000405038255608 -4.06284001258e-05
269 2 2.410964385 4.175911901 9.938182334 0.0 0.0 0.0 -2.03589931622e-05 0.000463355792941 -0.00044557418722
270 2 9.847773757 4.175911901 9.938182334 0.0 0.0 0.0 -2.12747707947e-05 -4.2217935975e-05 -0.000135759327738
271 2 6.129368999 10.616377215 9.938182334 0.0 0.0 0.0 -0.000461470434311 -0.000296132270745 -0.000448939375103
272 2 13.566178371 10.616377215 9.938182334 0.0 0.0 0.0 0.000418101726154 -0.000294607461467 -0.000446789795971
273 1 16.875000507 5.000403535 3.319819181 0.0 0.0 0.0 -7.87241997578e-05 0.000153068493225 -3.1230715359e-05