ITEM: TIMESTEP
0
ITEM: NUMBER OF ATOMS
288
ITEM: BOX BOUNDS xy xz yz xx yy zz
0.0 14.873618743 7.436809228
0.0 12.880930628 8.6e-08
0.0 13.87370028 -1.5e-08
ITEM: ATOMS id type x y z vx vy vz fx fy fz
1 2 2.338671397 1.12e-07 0.380392751 0.0 0.0 0.0 9.38796541288e-05 0.000275382728664 -8.0519149143e-05
2 2 9.775480768 1.12e-07 0.380392751 0.0 0.0 0.0 -7.14920927238e-05 0.000128878776736 6.98557993484e-05
3 2 6.057076011 6.440465426 0.380392751 0.0 0.0 0.0 -3.7784778068e-05 -0.000217606971339 5.53597347345e-05
4 2 13.493885382 6.440465426 0.380392751 0.0 0.0 0.0 0.000101124591131 -0.000137557020581 -2.17193453686e-05
5 2 2.33867144 1.04e-07 7.317242891 0.0 0.0 0.0 -0.0319478110459 0.00819045358242 0.0125404464377
6 2 9.775480812 1.04e-07 7.317242891 0.0 0.0 0.0 -0.000779123448859 0.000517078805192 -0.000150819347255
7 2 6.057076054 6.440465418 7.317242891 0.0 0.0 0.0 -0.000171121365661 -0.00078618396478 -6.09203343918e-05
8 2 13.493885426 6.440465418 7.317242891 0.0 0.0 0.0 0.00026717600564 -0.000534858849902 8.49712250405e-05
9 1 2.400632363 4.61e-07 1.351465958 0.0 0.0 0.0 1.51944249905e-05 -0.00020149206087 0.000177947718169
10 1 9.837441735 4.61e-07 1.351465958 0.0 0.0 0.0 0.000113401392337 -8.85638838128e-05 -3.41523328904e-05
11 1 6.119036977 6.440465774 1.351465958 0.0 0.0 0.0 7.90832056764e-05 0.000137162489388 -1.1025339375e-05
12 1 13.555846349 6.440465774 1.351465958 0.0 0.0 0.0 -1.73374987485e-06 9.06388614064e-05 8.38645259307e-05
13 1 2.400632406 4.53e-07 8.288316098 0.0 0.0 0.0 0.000404220529081 -0.000981276030044 -0.00101687368671
14 1 9.837441778 4.53e-07 8.288316098 0.0 0.0 0.0 0.00034717972311 -0.000227224404219 0.000207202777739
15 1 6.11903702 6.440465767 8.288316098 0.0 0.0 0.0 0.000118379990254 0.000325379535268 0.00011865724737
16 1 13.555846392 6.440465767 8.288316098 0.0 0.0 0.0 -5.37960490318e-05 0.000226645697998 -3.26788087863e-05
17 1 10.701141082 12.880930558 0.072968506 0.0 0.0 0.0 -1.2734782242e-05 -0.000151461118364 6.6989969471e-05
18 1 18.137950453 12.880930558 0.072968506 0.0 0.0 0.0 0.000124068416687 -3.94840177441e-05 5.30494496547e-05
19 1 6.982736468 6.440465244 0.072968506 0.0 0.0 0.0 0.00011882408264 0.000113970482384 5.20611038028e-05
20 1 14.419545839 6.440465244 0.072968506 0.0 0.0 0.0 6.40600484653e-06 4.91039667167e-05 5.86125921235e-05
21 1 10.701141125 12.880930551 7.009818646 0.0 0.0 0.0 0.00993610730096 -0.00941662649827 -0.00391604448249
22 1 18.137950497 12.880930551 7.009818646 0.0 0.0 0.0 0.000337099612502 -0.000122522501762 5.47590705728e-05
23 1 6.982736511 6.440465237 7.009818646 0.0 0.0 0.0 0.000257543570029 0.000418239248032 6.23661749126e-05
24 1 14.419545882 6.440465237 7.009818646 0.0 0.0 0.0 -0.000119246474968 0.000201257386306 4.90294589042e-05
25 2 13.704282012 2.025348059 0.380394512 0.0 0.0 0.0 -8.10326202887e-05 7.34427676264e-05 4.22675856682e-06
26 2 6.26747264 2.025348059 0.380394512 0.0 0.0 0.0 5.16295926777e-05 0.000141815998493 0.000199457779172
27 2 17.422686626 8.465813373 0.380394512 0.0 0.0 0.0 5.85354194069e-05 -6.91447143195e-06 4.19158860532e-06
28 2 9.985877254 8.465813373 0.380394512 0.0 0.0 0.0 -0.000114621702781 -0.000145559712127 -0.000101175877345
29 2 13.704282055 2.025348052 7.317244652 0.0 0.0 0.0 -0.000215282115485 0.000187476805124 1.8777229276e-05
30 2 6.267472684 2.025348052 7.317244652 0.0 0.0 0.0 -0.0347633775522 -0.0494816372125 -0.0236958060655
31 2 17.422686669 8.465813365 7.317244652 0.0 0.0 0.0 0.000225124607826 -6.58756900151e-05 1.89059647939e-05
32 2 9.985877298 8.465813365 7.317244652 0.0 0.0 0.0 -0.000820123509172 -0.00136340550275 0.000341536301352
33 1 13.673300338 2.079010187 1.351467718 0.0 0.0 0.0 2.75317041998e-05 -4.51161689612e-06 3.74574931166e-05
34 1 6.236490966 2.079010187 1.351467718 0.0 0.0 0.0 -4.62836497008e-05 -3.74916820678e-05 -0.000248837066029
35 1 17.391704952 8.519475501 1.351467718 0.0 0.0 0.0 -6.00062151383e-05 5.29940432083e-05 3.54261250777e-05
36 1 9.95489558 8.519475501 1.351467718 0.0 0.0 0.0 5.79313960111e-05 0.00015956647179 0.000167673673218
37 1 13.673300381 2.07901018 8.288317858 0.0 0.0 0.0 7.46555965617e-05 -4.75354907513e-05 2.05993051917e-05
38 1 6.236491009 2.07901018 8.288317858 0.0 0.0 0.0 0.000493685411823 0.000655674052153 0.00250252784884
39 1 17.391704995 8.519475493 8.288317858 0.0 0.0 0.0 -0.000113205421707 7.70873451043e-05 2.40917045517e-05
40 1 9.954895623 8.519475493 8.288317858 0.0 0.0 0.0 0.000259711128939 0.000531291154309 -0.000268199914958
41 1 13.241451457 2.826992613 0.072968839 0.0 0.0 0.0 -9.21879586113e-07 7.07129968938e-05 5.36388089224e-05
42 1 5.804642085 2.826992613 0.072968839 0.0 0.0 0.0 -6.78737782988e-05 5.81562184939e-05 2.63596602463e-05
43 1 16.959856071 9.267457927 0.072968839 0.0 0.0 0.0 -6.79569458276e-05 4.26877464979e-05 5.76074999917e-05
44 1 9.523046699 9.267457927 0.072968839 0.0 0.0 0.0 2.35806629479e-05 0.000103016325538 7.9543646356e-05
45 1 13.2414515 2.826992606 7.009818978 0.0 0.0 0.0 5.10354559322e-05 7.78320237492e-05 5.66723466595e-05
46 1 5.804642128 2.826992606 7.009818978 0.0 0.0 0.0 -6.28934005691e-05 0.0031969279833 0.000190014642051
47 1 16.959856114 9.26745792 7.009818978 0.0 0.0 0.0 -0.000204500288602 -4.71384375761e-06 4.77019360621e-05
48 1 9.523046743 9.26745792 7.009818978 0.0 0.0 0.0 0.000741681770029 0.000845859899685 -5.77666350873e-05
49 2 17.422687622 4.415117298 0.380394729 0.0 0.0 0.0 0.00014648408649 -5.1542065814e-05 6.32104614862e-05
50 2 9.985878251 4.415117298 0.380394729 0.0 0.0 0.0 -0.000170150289013 -0.000195700938322 4.90329756182e-05
51 2 21.141092236 10.855582612 0.380394729 0.0 0.0 0.0 -0.000170192825892 -3.39344250002e-05 -2.78190551426e-05
52 2 13.704282865 10.855582612 0.380394729 0.0 0.0 0.0 0.000191066177691 0.00016678090441 -8.69694836543e-05
53 2 17.422687665 4.415117291 7.317244869 0.0 0.0 0.0 0.000830528614085 -0.000466019209346 -0.000154956462645
54 2 9.985878294 4.415117291 7.317244869 0.0 0.0 0.0 -0.00059610083957 -0.000597821322576 -6.72404949337e-05
55 2 21.14109228 10.855582605 7.317244869 0.0 0.0 0.0 -0.000595425521664 -8.71879722608e-05 7.81619970298e-05
56 2 13.704282908 10.855582605 7.317244869 0.0 0.0 0.0 0.0221065871392 -0.0174803688053 0.0105760833279
57 1 2.518088606 4.36145465 1.351467896 0.0 0.0 0.0 -0.000127994034147 1.2886062116e-06 -3.67408462494e-05
58 1 9.954897977 4.36145465 1.351467896 0.0 0.0 0.0 7.94290366906e-05 8.26100013174e-05 -1.20462448671e-05
59 1 6.23649322 10.801919964 1.351467896 0.0 0.0 0.0 8.22576086618e-05 -2.43207160893e-05 7.85896837718e-05
60 1 13.673302591 10.801919964 1.351467896 0.0 0.0 0.0 -0.000181732991693 -0.000167507135748 0.000165766336248
61 1 2.518088649 4.361454643 8.288318036 0.0 0.0 0.0 -0.000336944367257 0.000135517395657 0.000186920474079
62 1 9.95489802 4.361454643 8.288318036 0.0 0.0 0.0 0.000212000681417 0.000214235080392 0.000104922066572
63 1 6.236493263 10.801919957 8.288318036 0.0 0.0 0.0 0.000229801633291 -9.6655015632e-06 -3.92139247387e-05
64 1 13.673302635 10.801919957 8.288318036 0.0 0.0 0.0 -0.00122614897472 -0.000395070129266 -0.00112741227213
65 1 16.959856167 3.613473172 0.07296928 0.0 0.0 0.0 -0.000101217968858 -9.17841601693e-05 4.91184062498e-05
66 1 9.523046796 3.613473172 0.07296928 0.0 0.0 0.0 4.94278042215e-05 -1.23215462116e-05 3.82203584755e-05
67 1 20.678260782 10.053938486 0.07296928 0.0 0.0 0.0 3.24839857073e-05 -3.32674473225e-05 5.73659017813e-05
68 1 13.24145141 10.053938486 0.07296928 0.0 0.0 0.0 -0.000108323203683 -8.85597950291e-05 8.32517400352e-05
69 1 16.959856211 3.613473164 7.00981942 0.0 0.0 0.0 -0.00058588660957 -4.26023891298e-05 8.67529377129e-05
70 1 9.523046839 3.613473164 7.00981942 0.0 0.0 0.0 0.000453231774643 0.000253257583846 9.75721105042e-05
71 1 20.678260825 10.053938478 7.00981942 0.0 0.0 0.0 0.000174104786256 2.54254982341e-05 5.12463333199e-05
72 1 13.241451453 10.053938478 7.00981942 0.0 0.0 0.0 -0.00143948355068 0.00229885021238 -0.000232840249177
73 2 5.098138192 9.1e-08 3.848820961 0.0 0.0 0.0 0.00417737878785 0.00789505196878 0.0033511156056
74 2 12.534947564 9.1e-08 3.848820961 0.0 0.0 0.0 -0.00037053668411 0.000136810029588 6.82355473447e-06
75 2 8.816542806 6.440465404 3.848820961 0.0 0.0 0.0 -0.000370561933674 -0.000589739384024 6.31154821588e-06
76 2 16.253352178 6.440465404 3.848820961 0.0 0.0 0.0 0.000258673802103 -0.000226450336838 6.40232793347e-06
77 2 5.098138235 8.3e-08 10.785671101 0.0 0.0 0.0 0.000502533053434 0.000922277857344 7.06886816824e-06
78 2 12.534947607 8.3e-08 10.785671101 0.0 0.0 0.0 -0.000247285331235 9.49562957417e-05 6.96789097254e-06
79 2 8.816542849 6.440465397 10.785671101 0.0 0.0 0.0 -0.000247307990305 -0.000376243380491 7.25429470422e-06
80 2 16.253352221 6.440465397 10.785671101 0.0 0.0 0.0 0.000160781800254 -0.000140627088859 7.44383974971e-06
81 1 12.472986142 12.880930033 4.819894401 0.0 0.0 0.0 -0.00559019756402 -0.00966971099499 -0.000813314447684
82 1 19.909795513 12.880930033 4.819894401 0.0 0.0 0.0 0.000173890332721 -8.16782110528e-05 3.30556762372e-05
83 1 8.754581528 6.440464719 4.819894401 0.0 0.0 0.0 0.000173615338007 0.000375428370126 3.32578946793e-05
84 1 16.191390899 6.440464719 4.819894401 0.0 0.0 0.0 -0.000221851873208 0.000147070860162 2.69703014911e-05
85 1 12.472986185 12.880930026 11.756744541 0.0 0.0 0.0 -0.000153384595389 -0.000191635821136 3.72201914081e-05
86 1 19.909795557 12.880930026 11.756744541 0.0 0.0 0.0 3.55063617638e-05 -3.4876223261e-05 2.62941506086e-05
87 1 8.754581571 6.440464712 11.756744541 0.0 0.0 0.0 3.54600520758e-05 0.000135830766411 2.61824683486e-05
88 1 16.191390943 6.440464712 11.756744541 0.0 0.0 0.0 -0.000112233923561 5.05541321434e-05 3.01310160126e-05
89 1 4.172478132 1.2e-08 3.541396305 0.0 0.0 0.0 -0.000399586730949 -0.000929929366854 0.000825612195347
90 1 11.609287504 1.2e-08 3.541396305 0.0 0.0 0.0 8.78046080798e-05 -7.35706873732e-05 9.05411702127e-06
91 1 7.890882746 6.440465326 3.541396305 0.0 0.0 0.0 6.89915161643e-05 0.00025647922088 1.17488410745e-05
92 1 15.327692118 6.440465326 3.541396305 0.0 0.0 0.0 -0.000187613577443 0.000108526468243 8.67575773125e-05
93 1 4.172478175 5e-09 10.478246445 0.0 0.0 0.0 -0.000375888948416 -0.000638788307449 -0.000229176661808
94 1 11.609287547 5e-09 10.478246445 0.0 0.0 0.0 6.09408186583e-05 -6.28341855277e-05 9.14577894678e-05
95 1 7.890882789 6.440465319 10.478246445 0.0 0.0 0.0 4.94019965599e-05 0.00021660300983 8.94592034901e-05
96 1 15.327692161 6.440465319 10.478246445 0.0 0.0 0.0 -0.000170609389595 8.97005889619e-05 2.3873837884e-05
97 2 12.324550744 4.415115375 3.848820709 0.0 0.0 0.0 -0.000114900946175 -0.000246037270803 1.00754654341e-05
98 2 4.887741372 4.415115375 3.848820709 0.0 0.0 0.0 0.000301855851127 -0.000894707824735 0.000785321581325
99 2 16.042955358 10.855580689 3.848820709 0.0 0.0 0.0 0.000301922872299 0.000477326998266 1.03384476733e-05
100 2 8.606145986 10.855580689 3.848820709 0.0 0.0 0.0 -0.000883754522924 -0.000207358673057 -0.000763996041805
101 2 12.324550787 4.415115367 10.785670849 0.0 0.0 0.0 -7.51197123619e-05 -0.000176888019544 1.08588905706e-05
102 2 4.887741415 4.415115367 10.785670849 0.0 0.0 0.0 0.000161649230661 -0.000311909811009 -0.000426275583031
103 2 16.042955401 10.855580681 10.785670849 0.0 0.0 0.0 0.000161661521885 0.000234319325539 1.05613990035e-05
104 2 8.606146029 10.855580681 10.785670849 0.0 0.0 0.0 -0.000310412569642 -3.82448774752e-05 0.00044786567402
105 1 12.355530592 4.361455296 4.81989398 0.0 0.0 0.0 0.000100640449292 0.000109586651238 3.53628844444e-05
106 1 4.91872122 4.361455296 4.81989398 0.0 0.0 0.0 -0.000188050263867 0.00074173700524 -0.00033994804914
107 1 16.073935206 10.801920609 4.81989398 0.0 0.0 0.0 -0.00018806231134 -0.00043308842263 2.78715094804e-05
108 1 8.637125834 10.801920609 4.81989398 0.0 0.0 0.0 0.000831656666361 0.000157418214189 0.000435073535155
109 1 12.355530635 4.361455288 11.75674412 0.0 0.0 0.0 5.64282968637e-05 2.81083366083e-05 3.22407678617e-05
110 1 4.918721263 4.361455288 11.75674412 0.0 0.0 0.0 -2.31314689769e-05 2.73772127233e-05 0.000129095944303
111 1 16.073935249 10.801920602 11.75674412 0.0 0.0 0.0 -2.31341974081e-05 -0.000119432130196 3.5050828456e-05
112 1 8.637125877 10.801920602 11.75674412 0.0 0.0 0.0 9.67174274083e-05 -5.01216699563e-05 -6.64819359396e-05
113 1 12.787381758 3.613470486 3.541396271 0.0 0.0 0.0 8.6653113148e-05 -2.31777360544e-05 4.66004300355e-05
114 1 5.350572387 3.613470486 3.541396271 0.0 0.0 0.0 -6.44319966239e-05 0.000322967831447 -0.000575499215779
115 1 16.505786372 10.0539358 3.541396271 0.0 0.0 0.0 -7.49171962583e-05 -0.000107994426389 8.296914772e-05
116 1 9.068977001 10.0539358 3.541396271 0.0 0.0 0.0 0.000321239786738 0.000168293352507 0.000422459283143
117 1 12.787381802 3.613470479 10.478246411 0.0 0.0 0.0 7.93747203699e-05 -2.21911694002e-05 6.20324191873e-05
118 1 5.35057243 3.613470479 10.478246411 0.0 0.0 0.0 -5.27569972045e-05 0.000137609947573 0.000490178447683
119 1 16.505786416 10.053935793 10.478246411 0.0 0.0 0.0 -5.62767223136e-05 -0.000115711377135 3.2526981885e-05
120 1 9.068977044 10.053935793 10.478246411 0.0 0.0 0.0 0.000238740260867 7.84658761736e-05 -0.000243423371237
121 2 16.042954883 2.025349614 3.848821218 0.0 0.0 0.0 0.000300193305621 0.000520772342243 9.86302820905e-06
122 2 8.606145512 2.025349614 3.848821218 0.0 0.0 0.0 -0.00088588674359 -0.000163921104072 0.000790300206863
123 2 19.761359497 8.465814928 3.848821218 0.0 0.0 0.0 -0.000112996036895 -0.000196615652288 1.0229892874e-05
124 2 12.324550126 8.465814928 3.848821218 0.0 0.0 0.0 0.000300183958462 -0.000850193230158 -0.00076946501674
125 2 16.042954927 2.025349607 10.785671358 0.0 0.0 0.0 0.000161724540027 0.000280508745861 1.08717626706e-05
126 2 8.606145555 2.025349607 10.785671358 0.0 0.0 0.0 -0.000309345369405 8.55892807101e-06 -0.000428582473175
127 2 19.761359541 8.46581492 10.785671358 0.0 0.0 0.0 -7.34729062786e-05 -0.000127927167569 1.05606985151e-05
128 2 12.324550169 8.46581492 10.785671358 0.0 0.0 0.0 0.000161763322174 -0.000264308691598 0.000449525408115
129 1 16.07393341 2.079010738 4.819894452 0.0 0.0 0.0 -0.000155361847348 -0.000348341617163 4.57135767761e-05
130 1 8.637124038 2.079010738 4.819894452 0.0 0.0 0.0 0.00087133462568 0.00024280654347 -0.000402615294064
131 1 19.792338024 8.519476052 4.819894452 0.0 0.0 0.0 9.7680821158e-05 0.000168988302887 3.22417113858e-05
132 1 12.355528653 8.519476052 4.819894452 0.0 0.0 0.0 -0.000156514495171 0.000824610404889 0.000416269496917
133 1 16.073933453 2.079010731 11.756744592 0.0 0.0 0.0 -1.32323793788e-05 -5.16690806194e-05 2.94379940602e-05
134 1 8.637124082 2.079010731 11.756744592 0.0 0.0 0.0 9.91792663145e-05 1.31263269605e-05 0.000138380433104
135 1 19.792338067 8.519476045 11.756744592 0.0 0.0 0.0 5.78125012245e-05 9.02993253497e-05 3.46759817801e-05
136 1 12.355528696 8.519476045 11.756744592 0.0 0.0 0.0 -1.33157910801e-05 9.4479221682e-05 -6.49608608067e-05
137 1 1.632167798 2.826994038 3.541396624 0.0 0.0 0.0 -0.00021131512344 -2.68488918107e-05 -4.32768074979e-05
138 1 9.06897717 2.826994038 3.541396624 0.0 0.0 0.0 0.0002715190919 0.0002040874355 -0.0001304792548
139 1 5.350572412 9.267459352 3.541396624 0.0 0.0 0.0 0.000143430524595 0.000120623920713 8.17713651823e-05
140 1 12.787381784 9.267459352 3.541396624 0.0 0.0 0.0 -0.000274330744793 0.000313218940623 0.000595292801549
141 1 1.632167841 2.826994031 10.478246764 0.0 0.0 0.0 -0.000141478503876 -2.88539095514e-05 0.000126818287177
142 1 9.068977213 2.826994031 10.478246764 0.0 0.0 0.0 0.000235790880928 0.000164944256812 0.00023534212323
143 1 5.350572456 9.267459345 10.478246764 0.0 0.0 0.0 0.000123186321405 0.000114150687796 3.0253170979e-05
144 1 12.787381827 9.267459345 10.478246764 0.0 0.0 0.0 -0.000169769809664 0.000181141343353 -0.0003209528052
145 2 12.253736453 12.872270059 6.469757221 0.0 0.0 0.0 0.190031574316 0.518134120219 0.0833371608855
146 2 19.695545825 12.880930313 6.469757221 0.0 0.0 0.0 -0.000514404138665 0.000177941328471 -4.71168252073e-05
147 2 8.540331839 6.440464999 6.469757221 0.0 0.0 0.0 -0.000514390587853 -0.000814462884687 -4.71087445382e-05
148 2 15.97714121 6.440464999 6.469757221 0.0 0.0 0.0 0.00034510943338 -0.000318250489268 -4.70941955911e-05
149 2 12.258736496 12.880930306 13.40660736 0.0 0.0 0.0 0.000143120795864 0.000324445816552 -4.83316569373e-05
150 2 19.695545868 12.880930306 13.40660736 0.0 0.0 0.0 -0.000180441629618 6.56000137477e-05 -4.83313231696e-05
151 2 8.540331882 6.440464992 13.40660736 0.0 0.0 0.0 -0.000180449977276 -0.000235998319056 -4.83396205631e-05
152 2 15.977141254 6.440464992 13.40660736 0.0 0.0 0.0 8.07107409322e-05 -8.52107823336e-05 -4.83395459714e-05
153 1 5.331166141 0.766954845 6.788243965 0.0 0.0 0.0 -0.217797060777 -0.286452966972 -0.128169792505
154 1 12.767975512 0.766954845 6.788243965 0.0 0.0 0.0 0.000150246346662 -7.0645939368e-05 -2.57856815811e-05
155 1 9.049570755 7.207420159 6.788243965 0.0 0.0 0.0 0.000202739282082 0.00046594576863 -3.86816864203e-05
156 1 16.486380127 7.207420159 6.788243965 0.0 0.0 0.0 -0.000249935709999 0.000153747758387 -2.67592557107e-05
157 1 5.331166184 0.766954838 13.725094105 0.0 0.0 0.0 -0.000144898048265 -0.000125176876898 -4.18399370504e-05
158 1 12.767975556 0.766954838 13.725094105 0.0 0.0 0.0 8.13346128933e-07 -1.35804674956e-05 -2.38157805809e-05
159 1 9.049570798 7.207420151 13.725094105 0.0 0.0 0.0 4.32720187086e-06 0.000129141901539 -1.75168080142e-05
160 1 16.48638017 7.207420151 13.725094105 0.0 0.0 0.0 -0.000120077661857 5.39472725853e-05 -2.33177299156e-05
161 1 16.486380702 5.673510068 6.788243516 0.0 0.0 0.0 -0.000288362505662 0.00014789475149 -1.5629847422e-05
162 1 9.04957133 5.673510068 6.788243516 0.0 0.0 0.0 0.000192583545822 0.000375127282024 -1.51705384459e-05
163 1 20.204785316 12.113975382 6.788243516 0.0 0.0 0.0 0.000184606106344 -8.55502787843e-05 -2.67997246841e-05
164 1 12.767975944 12.113975382 6.788243516 0.0 0.0 0.0 0.0641789992737 -0.1638067582 0.046472360668
165 1 16.486380745 5.673510061 13.725093655 0.0 0.0 0.0 -0.000126571800719 1.9427062091e-05 -2.46663964928e-05
166 1 9.049571373 5.673510061 13.725093655 0.0 0.0 0.0 8.25388257984e-06 9.39251100392e-05 -2.50613322616e-05
167 1 20.204785359 12.113975375 13.725093655 0.0 0.0 0.0 7.70557845581e-06 -4.39251554445e-05 -1.90517747932e-05
168 1 12.767975987 12.113975375 13.725093655 0.0 0.0 0.0 -0.000156543060443 -0.000166368113468 -1.15708761038e-05
169 2 12.462655523 4.175912014 6.46975888 0.0 0.0 0.0 -0.000149282584753 -0.000331146833199 -5.32965877813e-05
170 2 5.025846151 4.175912014 6.46975888 0.0 0.0 0.0 0.000514500561074 -0.00217494629633 -5.3292841875e-05
171 2 16.181060137 10.616377328 6.46975888 0.0 0.0 0.0 0.000514278690595 0.000825535384131 -5.33034003855e-05
172 2 8.744250765 10.616377328 6.46975888 0.0 0.0 0.0 -0.00208842446318 -0.000676987095992 -5.33039043353e-05
173 2 12.462655566 4.175912007 13.406609019 0.0 0.0 0.0 -4.26603900912e-05 -0.000145615099998 -5.45201599843e-05
174 2 5.025846194 4.175912007 13.406609019 0.0 0.0 0.0 9.57475180549e-05 -0.000131079647406 -5.45190962351e-05
175 2 16.18106018 10.616377321 13.406609019 0.0 0.0 0.0 9.57455165568e-05 9.5041511628e-05 -5.45207138082e-05
176 2 8.744250808 10.616377321 13.406609019 0.0 0.0 0.0 -9.93146048451e-05 -1.75722802769e-05 -5.45197669734e-05
177 1 4.107023344 4.233448053 6.788243333 0.0 0.0 0.0 -0.000590501847002 0.000681142575143 7.11484334916e-05
178 1 11.543832716 4.233448053 6.788243333 0.0 0.0 0.0 0.00019945547291 0.000133104560205 -1.7613703938e-05
179 1 7.825427958 10.673913367 6.788243333 0.0 0.0 0.0 0.000508275667207 1.8195925246e-05 -7.17824792024e-05
180 1 15.26223733 10.673913367 6.788243333 0.0 0.0 0.0 -0.000939515570827 -0.000642431056886 -5.42490043246e-05
181 1 4.107023387 4.233448046 13.725093473 0.0 0.0 0.0 -5.75059571283e-05 -4.00870293329e-05 -3.94335533629e-05
182 1 11.543832759 4.233448046 13.725093473 0.0 0.0 0.0 7.27014597943e-05 4.51567701858e-06 -2.17559048128e-05
183 1 7.825428001 10.67391336 13.725093473 0.0 0.0 0.0 9.31776975306e-05 -5.68368109225e-05 -3.56747279061e-06
184 1 15.262237373 10.67391336 13.725093473 0.0 0.0 0.0 -6.14765612785e-05 -0.000145136162355 -1.58460793301e-05
185 1 12.872237203 5.00040447 6.78824545 0.0 0.0 0.0 3.35464839615e-05 0.000145679227858 -3.32229386184e-05
186 1 5.435427832 5.00040447 6.78824545 0.0 0.0 0.0 9.73263573629e-05 0.000575549002968 2.89630501764e-05
187 1 16.590641818 11.440869783 6.78824545 0.0 0.0 0.0 0.000248289681922 -0.000559968849749 -8.52422616342e-06
188 1 9.153832446 11.440869783 6.78824545 0.0 0.0 0.0 0.00214179919878 7.95270274578e-05 -0.000251165378653
189 1 12.872237247 5.000404462 13.72509559 0.0 0.0 0.0 4.57075103831e-05 1.36211138674e-05 -2.65097505587e-05
190 1 5.435427875 5.000404462 13.72509559 0.0 0.0 0.0 4.60082655737e-05 3.82312311703e-05 -4.70127086879e-05
191 1 16.590641861 11.440869776 13.72509559 0.0 0.0 0.0 4.95818307821e-05 -0.000128867300935 -3.3465021829e-05
192 1 9.153832489 11.440869776 13.72509559 0.0 0.0 0.0 7.15099384431e-05 -0.000121520419713 -3.24599701387e-06
193 2 1.307441393 2.264553585 6.469759523 0.0 0.0 0.0 0.000501116375943 0.000897163196096 -5.33691259634e-05
194 2 8.744250764 2.264553585 6.469759523 0.0 0.0 0.0 -0.00210299595465 -0.000606600446707 -5.33793634064e-05
195 2 5.025846007 8.705018899 6.469759523 0.0 0.0 0.0 -0.000149668894042 -0.000245030549 -5.33680699437e-05
196 2 12.462655379 8.705018899 6.469759523 0.0 0.0 0.0 0.00050110930372 -0.00210845915692 -5.33677852253e-05
197 2 1.307441436 2.264553578 13.406609663 0.0 0.0 0.0 9.29436113869e-05 0.000177984357064 -5.46034554807e-05
198 2 8.744250808 2.264553578 13.406609663 0.0 0.0 0.0 -0.000101181380081 6.59093937135e-05 -5.46020952706e-05
199 2 5.02584605 8.705018892 13.406609663 0.0 0.0 0.0 -4.44648593435e-05 -6.12090370776e-05 -5.45926683891e-05
200 2 12.462655422 8.705018892 13.406609663 0.0 0.0 0.0 9.29517042376e-05 -4.72832007814e-05 -5.4591696702e-05
201 1 1.717022388 1.440060952 6.788246651 0.0 0.0 0.0 -0.000103627052261 -0.00110702503152 -6.15261036231e-05
202 1 9.15383176 1.440060952 6.788246651 0.0 0.0 0.0 0.000899840039523 -7.9315556983e-05 5.01757556391e-05
203 1 5.435427002 7.880526266 6.788246651 0.0 0.0 0.0 0.000138861584804 0.000308132954123 -3.04144133119e-05
204 1 12.872236374 7.880526266 6.788246651 0.0 0.0 0.0 -0.000170082349907 0.00052530380879 -8.57721618094e-05
205 1 1.717022431 1.440060945 13.725096791 0.0 0.0 0.0 6.35086773229e-06 -5.6346514417e-05 -2.88088844787e-05
206 1 9.153831803 1.440060945 13.725096791 0.0 0.0 0.0 0.000106399800978 6.68313962072e-06 -5.10339178665e-05
207 1 5.435427045 7.880526258 13.725096791 0.0 0.0 0.0 8.02920231446e-05 0.000136041777932 -3.35643604586e-05
208 1 12.872236417 7.880526258 13.725096791 0.0 0.0 0.0 6.81799407476e-06 0.000118163146822 -1.55917993132e-05
209 1 15.262237079 2.207018097 6.788243067 0.0 0.0 0.0 3.4890028241e-05 -0.000132130780272 -2.13752958562e-05
210 1 7.825427708 2.207018097 6.788243067 0.0 0.0 0.0 0.00194179901673 0.00114876858725 0.00021754993428
211 1 18.980641693 8.647483411 6.788243067 0.0 0.0 0.0 5.66672920055e-06 0.000142447006968 -1.61546945551e-05
212 1 11.543832322 8.647483411 6.788243067 0.0 0.0 0.0 0.000226860549405 0.00127899197691 -0.000133608406732
213 1 15.262237122 2.207018089 13.725093207 0.0 0.0 0.0 7.77427932985e-06 1.60224797979e-05 -1.48865817936e-05
214 1 7.825427751 2.207018089 13.725093207 0.0 0.0 0.0 3.93041959505e-05 3.52978428747e-05 -4.50190231504e-05
215 1 18.980641736 8.647483403 13.725093207 0.0 0.0 0.0 1.32416606256e-05 9.19181018474e-05 -1.67984693494e-05
216 1 11.543832365 8.647483403 13.725093207 0.0 0.0 0.0 1.20508224459e-05 0.000121812656531 8.35652198143e-06
217 2 10.05169036 12.880930562 3.001331049 0.0 0.0 0.0 -2.35850382889e-05 0.000931716149633 -0.00085046430861
218 2 17.488499731 12.880930562 3.001331049 0.0 0.0 0.0 -0.000256899021919 0.000273029264456 0.000203171666315
219 2 6.333285745 6.440465248 3.001331049 0.0 0.0 0.0 -7.23408786012e-05 -0.000442655523542 0.00010528230315
220 2 13.770095117 6.440465248 3.001331049 0.0 0.0 0.0 0.000189639525949 -0.000292049429734 -0.000174724854024
221 2 10.051690403 12.880930555 9.938181189 0.0 0.0 0.0 -2.36483429609e-05 0.000931710383942 0.000764983496022
222 2 17.488499774 12.880930555 9.938181189 0.0 0.0 0.0 -0.000256948009501 0.000273009159308 -0.000288680110745
223 2 6.333285789 6.440465241 9.938181189 0.0 0.0 0.0 -7.24530836683e-05 -0.00044269290214 -0.000190792396596
224 2 13.77009516 6.440465241 9.938181189 0.0 0.0 0.0 0.000189565188906 -0.000292083109928 8.91976980779e-05
225 1 13.26085702 5.67351034 3.319819519 0.0 0.0 0.0 4.67234687434e-05 0.000119599923321 1.64518053594e-06
226 1 5.824047648 5.67351034 3.319819519 0.0 0.0 0.0 7.45728426474e-05 0.000272803284645 -0.000203155173983
227 1 16.979261634 12.113975653 3.319819519 0.0 0.0 0.0 0.000137275634715 -0.00024136000638 -0.000134073145045
228 1 9.542452262 12.113975653 3.319819519 0.0 0.0 0.0 0.000425279670318 -0.000236134670502 0.000590523365703
229 1 13.260857063 5.673510332 10.256669659 0.0 0.0 0.0 5.18296633343e-05 9.69254841611e-05 -5.6307024935e-05
230 1 5.824047691 5.673510332 10.256669659 0.0 0.0 0.0 6.92292119134e-05 0.00021206720781 0.000127303539603
231 1 16.979261677 12.113975646 10.256669659 0.0 0.0 0.0 0.000104943477237 -0.000197177392481 5.62222941694e-05
232 1 9.542452305 12.113975646 10.256669659 0.0 0.0 0.0 0.000274444802534 -0.000166451244098 -0.000463929061915
233 1 2.105642892 0.766955018 3.319818703 0.0 0.0 0.0 -3.03721721069e-05 -0.000462392329831 9.98713631667e-05
234 1 9.542452263 0.766955018 3.319818703 0.0 0.0 0.0 0.000332145630254 -9.31039174557e-05 -0.000257642327621
235 1 5.824047506 7.207420332 3.319818703 0.0 0.0 0.0 0.000122072743658 0.000197898912127 -4.70973212253e-05
236 1 13.260856878 7.207420332 3.319818703 0.0 0.0 0.0 -4.30857941369e-05 0.000240542754836 0.000123663292017
237 1 2.105642935 0.766955011 10.256668843 0.0 0.0 0.0 -3.76620472903e-05 -0.000310275969817 -8.26963827896e-05
238 1 9.542452307 0.766955011 10.256668843 0.0 0.0 0.0 0.000258608402545 -7.27180162455e-05 0.000171357828675
239 1 5.824047549 7.207420325 10.256668843 0.0 0.0 0.0 0.00011350212706 0.000167472689451 -5.79193770909e-06
240 1 13.260856921 7.207420325 10.256668843 0.0 0.0 0.0 -2.47654831695e-05 0.000193354768769 -0.000158166573687
241 2 13.566178647 2.264553318 3.001331607 0.0 0.0 0.0 -0.000145548163927 0.000132704418224 -6.17923854024e-05
242 2 6.129369276 2.264553318 3.001331607 0.0 0.0 0.0 -8.89374952316e-05 -7.37050182558e-05 0.00157489903032
243 2 17.284583261 8.705018632 3.001331607 0.0 0.0 0.0 0.000118173823614 -1.95453876881e-05 -6.17742062027e-05
244 2 9.84777389 8.705018632 3.001331607 0.0 0.0 0.0 -0.00032771260718 -0.000487289854445 -0.000531462727334
245 2 13.56617869 2.26455331 9.938181747 0.0 0.0 0.0 -0.000145459953552 0.000132680733557 -3.1130183304e-05
246 2 6.129369319 2.26455331 9.938181747 0.0 0.0 0.0 -8.88940636693e-05 -7.37281804242e-05 -0.00166782715317
247 2 17.284583305 8.705018624 9.938181747 0.0 0.0 0.0 0.000118168405847 -1.95660051263e-05 -3.11401148261e-05
248 2 9.847773933 8.705018624 9.938181747 0.0 0.0 0.0 -0.000327669680404 -0.000487301822948 0.000438541759114
249 1 14.485000752 2.20701716 3.319818255 0.0 0.0 0.0 -1.16234297433e-05 -4.15020546889e-05 -5.20990494726e-06
250 1 7.048191381 2.20701716 3.319818255 0.0 0.0 0.0 0.000342113349393 0.000214160256349 -0.000738450363515
251 1 18.203405367 8.647482473 3.319818255 0.0 0.0 0.0 -2.61789990047e-05 0.000114339472572 -3.30682917905e-05
252 1 10.766595995 8.647482473 3.319818255 0.0 0.0 0.0 6.51540658522e-05 0.0004218677754 0.000342068947977
253 1 14.485000796 2.207017152 10.256668395 0.0 0.0 0.0 -1.55633874964e-05 -2.4767297445e-05 -4.3866330024e-05
254 1 7.048191424 2.207017152 10.256668395 0.0 0.0 0.0 0.000197842708023 0.000108647578644 0.000449559817602
255 1 18.20340541 8.647482466 10.256668395 0.0 0.0 0.0 -2.14189154822e-05 0.000108422203444 -1.83233247176e-05
256 1 10.766596038 8.647482466 10.256668395 0.0 0.0 0.0 3.00993030246e-05 0.000313454007336 -0.000330575264522
257 1 5.719786092 1.440061854 3.319818129 0.0 0.0 0.0 -0.000311653154616 -0.000353274043132 -0.00131005589134
258 1 13.156595464 1.440061854 3.319818129 0.0 0.0 0.0 8.33630699271e-05 -1.46490671842e-05 -1.64792463739e-05
259 1 9.438190706 7.880527168 3.319818129 0.0 0.0 0.0 0.000120055053215 0.000319927958182 8.11763778969e-05
260 1 16.875000078 7.880527168 3.319818129 0.0 0.0 0.0 -0.000165294533691 0.000120495723069 -1.07499261119e-05
261 1 5.719786135 1.440061847 10.256668269 0.0 0.0 0.0 -0.000287080248035 -0.000337886129165 0.000710274258176
262 1 13.156595507 1.440061847 10.256668269 0.0 0.0 0.0 6.58007510523e-05 -6.19261675123e-06 -2.89089344814e-05
263 1 9.438190749 7.880527161 10.256668269 0.0 0.0 0.0 8.57158484474e-05 0.000262066098578 -0.000109896039272
264 1 16.875000121 7.880527161 10.256668269 0.0 0.0 0.0 -0.000148296132039 0.000109918818725 -3.42338800008e-05
265 2 2.410964342 4.175911908 3.001332195 0.0 0.0 0.0 0.000364774911644 -0.000171822166911 0.000195436578243
266 2 9.847773713 4.175911908 3.001332195 0.0 0.0 0.0 -0.000344119429419 -0.000371165421906 0.000100179212968
267 2 6.129368956 10.616377222 3.001332195 0.0 0.0 0.0 -0.000344685885299 -6.54346952058e-05 -0.000178586658725
268 2 13.566178327 10.616377222 3.001332195 0.0 0.0 0.0 0.000824580964319 0.000373309713895 -0.00085676061271
269 2 2.410964385 4.175911901 9.938182334 0.0 0.0 0.0 0.000364856243946 -0.000171762167934 -0.000290091450735
270 2 9.847773757 4.175911901 9.938182334 0.0 0.0 0.0 -0.000344131663967 -0.000371100634464 -0.000194827907108
271 2 6.129368999 10.616377215 9.938182334 0.0 0.0 0.0 -0.000344628859265 -6.54177721295e-05 8.39361269842e-05
272 2 13.566178371 10.616377215 9.938182334 0.0 0.0 0.0 0.000824582937146 0.000373333870153 0.000762104943098
273 1 16.875000507 5.000403535 3.319819181 0.0 0.0 0.0 -0.000193553936951 4.85840382525e-05 -7.66316495789e-05