ITEM: TIMESTEP
0
ITEM: NUMBER OF ATOMS
288
ITEM: BOX BOUNDS xy xz yz xx yy zz
0.0 14.873618743 7.436809228
0.0 12.880930628 8.6e-08
0.0 13.87370028 -1.5e-08
ITEM: ATOMS id type x y z vx vy vz fx fy fz
1 2 2.333671396 -0.008660142 0.380392751 0.0 0.0 0.0 0.264196630321 0.0884396646071 -0.0236793213944
2 2 9.775480768 1.12e-07 0.380392751 0.0 0.0 0.0 -0.000441181448343 0.000179164239152 1.50957550011e-05
3 2 6.057076011 6.440465426 0.380392751 0.0 0.0 0.0 -0.000441197955344 -0.000813258256915 1.50899960429e-05
4 2 13.493885382 6.440465426 0.380392751 0.0 0.0 0.0 0.000418277685415 -0.00031704587793 1.50952029964e-05
5 2 2.33867144 1.04e-07 7.317242891 0.0 0.0 0.0 0.00021644116572 0.000325652304996 1.65630351043e-05
6 2 9.775480812 1.04e-07 7.317242891 0.0 0.0 0.0 -0.000107115579005 6.68057927179e-05 1.65610755322e-05
7 2 6.057076054 6.440465418 7.317242891 0.0 0.0 0.0 -0.000107117729089 -0.000234766182781 1.65616310173e-05
8 2 13.493885426 6.440465418 7.317242891 0.0 0.0 0.0 0.000154003633123 -8.39804276132e-05 1.65745991416e-05
9 1 2.400632363 4.61e-07 1.351465958 0.0 0.0 0.0 -0.0344711622182 -0.0182423554507 -0.0128916810992
10 1 9.837441735 4.61e-07 1.351465958 0.0 0.0 0.0 0.000264708750675 -8.77170927644e-05 4.05600848903e-05
11 1 6.119036977 6.440465774 1.351465958 0.0 0.0 0.0 0.000264367852949 0.000384720156769 4.03850258337e-05
12 1 13.555846349 6.440465774 1.351465958 0.0 0.0 0.0 -0.000144418167989 0.000148748405677 3.69165599173e-05
13 1 2.400632406 4.53e-07 8.288316098 0.0 0.0 0.0 -7.17780415411e-05 -0.000197926672846 4.18270952052e-05
14 1 9.837441778 4.53e-07 8.288316098 0.0 0.0 0.0 0.000115630848773 -3.74502583373e-05 3.76672907606e-05
15 1 6.11903702 6.440465767 8.288316098 0.0 0.0 0.0 0.000115600805401 0.000126824180685 3.77636230735e-05
16 1 13.555846392 6.440465767 8.288316098 0.0 0.0 0.0 -2.65667369278e-05 4.47468427265e-05 3.96555804508e-05
17 1 10.701141082 12.880930558 0.072968506 0.0 0.0 0.0 -0.193474972327 -0.0205932725933 0.0338087329932
18 1 18.137950453 12.880930558 0.072968506 0.0 0.0 0.0 0.000316034700521 -0.000108132529662 6.66548674029e-05
19 1 6.982736468 6.440465244 0.072968506 0.0 0.0 0.0 0.000274910485263 0.000408101162589 6.59368186549e-05
20 1 14.419545839 6.440465244 0.072968506 0.0 0.0 0.0 -0.00012349449768 0.000177650753136 4.79036142798e-05
21 1 10.701141125 12.880930551 7.009818646 0.0 0.0 0.0 -2.49891756601e-05 -0.000162399109986 6.92451984323e-05
22 1 18.137950497 12.880930551 7.009818646 0.0 0.0 0.0 0.000127696050758 -3.71864477632e-05 4.930774842e-05
23 1 6.982736511 6.440465237 7.009818646 0.0 0.0 0.0 0.000124830482637 0.000118116240192 4.94302343237e-05
24 1 14.419545882 6.440465237 7.009818646 0.0 0.0 0.0 1.9030081063e-06 4.70905174863e-05 5.88192606164e-05
25 2 13.704282012 2.025348059 0.380394512 0.0 0.0 0.0 0.000483389802769 0.00088399353828 7.85442568696e-06
26 2 6.26747264 2.025348059 0.380394512 0.0 0.0 0.0 -0.00211255681736 -0.000614526352025 7.85191000932e-06
27 2 17.422686626 8.465813373 0.380394512 0.0 0.0 0.0 -0.000181349484739 -0.000260003928886 7.85549062643e-06
28 2 9.985877254 8.465813373 0.380394512 0.0 0.0 0.0 0.000483561122003 -0.00211761806484 7.85526981757e-06
29 2 13.704282055 2.025348052 7.317244652 0.0 0.0 0.0 6.43723587019e-05 0.000163902729508 9.31907017254e-06
30 2 6.267472684 2.025348052 7.317244652 0.0 0.0 0.0 -0.000131257382428 5.09895027801e-05 9.31648618942e-06
31 2 17.422686669 8.465813365 7.317244652 0.0 0.0 0.0 -7.46230143254e-05 -7.58504865884e-05 9.30637697794e-06
32 2 9.985877298 8.465813365 7.317244652 0.0 0.0 0.0 6.43519207306e-05 -6.10350152153e-05 9.30871706437e-06
33 1 13.673300338 2.079010187 1.351467718 0.0 0.0 0.0 -0.000242647689815 -0.000406431517173 2.79899440949e-05
34 1 6.236490966 2.079010187 1.351467718 0.0 0.0 0.0 0.000898019855468 0.000254629289766 0.000402392276939
35 1 17.391704952 8.519475501 1.351467718 0.0 0.0 0.0 6.57874363074e-05 0.000175676569307 3.22563003986e-05
36 1 9.95489558 8.519475501 1.351467718 0.0 0.0 0.0 -0.000242371306017 0.000894979463483 -0.000321363904893
37 1 13.673300381 2.07901018 8.288317858 0.0 0.0 0.0 -5.88213354094e-05 -5.27222475014e-05 3.27411064891e-05
38 1 6.236491009 2.07901018 8.288317858 0.0 0.0 0.0 5.71776174031e-05 1.43041567368e-05 -5.55517584853e-05
39 1 17.391704995 8.519475493 8.288317858 0.0 0.0 0.0 1.80952898353e-05 8.72883716839e-05 3.15568528762e-05
40 1 9.954895623 8.519475493 8.288317858 0.0 0.0 0.0 -5.88090051551e-05 8.75388289235e-05 0.000118150225654
41 1 13.241451457 2.826992613 0.072968839 0.0 0.0 0.0 -0.000232586999888 -2.84044148811e-05 4.62891500843e-05
42 1 5.804642085 2.826992613 0.072968839 0.0 0.0 0.0 0.000866787001003 0.000774220948719 -0.000132797091383
43 1 16.959856071 9.267457927 0.072968839 0.0 0.0 0.0 5.24944282185e-05 0.000104361694018 5.6917672849e-05
44 1 9.523046699 9.267457927 0.072968839 0.0 0.0 0.0 -0.000152421960297 0.00216199017216 0.00044362285145
45 1 13.2414515 2.826992606 7.009818978 0.0 0.0 0.0 -6.99494596923e-05 3.10794474094e-05 5.6680127031e-05
46 1 5.804642128 2.826992606 7.009818978 0.0 0.0 0.0 2.8001725352e-05 9.16058903005e-05 9.58165713782e-05
47 1 16.959856114 9.26745792 7.009818978 0.0 0.0 0.0 -3.93886546157e-08 8.02858082857e-05 5.28694458799e-05
48 1 9.523046743 9.26745792 7.009818978 0.0 0.0 0.0 -6.98297902294e-05 7.2462413219e-05 4.52551719421e-06
49 2 17.422687622 4.415117298 0.380394729 0.0 0.0 0.0 0.000475413023097 -0.0021684472962 8.81644541484e-06
50 2 9.985878251 4.415117298 0.380394729 0.0 0.0 0.0 -0.000179291529482 -0.000316474897724 8.82029085966e-06
51 2 21.141092236 10.855582612 0.380394729 0.0 0.0 0.0 -0.00214557046743 -0.000684108757654 8.8242486449e-06
52 2 13.704282865 10.855582612 0.380394729 0.0 0.0 0.0 0.000475396099337 0.000829265610893 8.82018707698e-06
53 2 17.422687665 4.415117291 7.317244869 0.0 0.0 0.0 6.30735934858e-05 -0.000118690891125 1.02770387623e-05
54 2 9.985878294 4.415117291 7.317244869 0.0 0.0 0.0 -7.40273394941e-05 -0.000132469124484 1.02735376147e-05
55 2 21.14109228 10.855582605 7.317244869 0.0 0.0 0.0 -0.000130741335391 -4.73360887843e-06 1.02751643871e-05
56 2 13.704282908 10.855582605 7.317244869 0.0 0.0 0.0 6.30611997922e-05 0.000107160246823 1.02718526476e-05
57 1 2.518088606 4.36145465 1.351467896 0.0 0.0 0.0 -0.000210500103338 0.000858602950688 0.000388129194447
58 1 9.954897977 4.36145465 1.351467896 0.0 0.0 0.0 5.08195432937e-05 0.000116525571437 3.16531176663e-05
59 1 6.23649322 10.801919964 1.351467896 0.0 0.0 0.0 0.000956827593769 0.000232037816165 -0.000368609716808
60 1 13.673302591 10.801919964 1.351467896 0.0 0.0 0.0 -0.000208455326762 -0.000437996336153 4.13567108325e-05
61 1 2.518088649 4.361454643 8.288318036 0.0 0.0 0.0 -6.02047230819e-05 3.57651887485e-05 -5.38346937042e-05
62 1 9.95489802 4.361454643 8.288318036 0.0 0.0 0.0 9.28327508206e-06 3.12786410907e-05 3.40678370339e-05
63 1 6.236493263 10.801919957 8.288318036 0.0 0.0 0.0 4.88185202563e-05 -4.20213285644e-05 0.000123393720382
64 1 13.673302635 10.801919957 8.288318036 0.0 0.0 0.0 -6.01525972643e-05 -0.000104870913054 3.12656265472e-05
65 1 16.959856167 3.613473172 0.07296928 0.0 0.0 0.0 -0.000874045161471 0.00161158208562 -0.000285638013647
66 1 9.523046796 3.613473172 0.07296928 0.0 0.0 0.0 0.000143034258254 3.42399477788e-05 4.92525852895e-05
67 1 20.678260782 10.053938486 0.07296928 0.0 0.0 0.0 0.000499786716834 0.000270322716164 0.000158714540517
68 1 13.24145141 10.053938486 0.07296928 0.0 0.0 0.0 -0.000575843155191 -0.000183496249205 9.08038386112e-05
69 1 16.959856211 3.613473164 7.00981942 0.0 0.0 0.0 -0.000101761161091 -6.84425350228e-05 9.77886282857e-05
70 1 9.523046839 3.613473164 7.00981942 0.0 0.0 0.0 2.74482502587e-05 -2.6384312721e-05 5.77642014474e-05
71 1 20.678260825 10.053938478 7.00981942 0.0 0.0 0.0 5.04579071592e-05 -2.24798987305e-05 2.19960410801e-05
72 1 13.241451453 10.053938478 7.00981942 0.0 0.0 0.0 -9.79518803717e-05 -0.000104199986032 4.62951778982e-05
73 2 5.098138192 9.1e-08 3.848820961 0.0 0.0 0.0 -0.000100597952913 0.000931891283739 -0.000803461056212
74 2 12.534947564 9.1e-08 3.848820961 0.0 0.0 0.0 -0.000334918677574 0.000270808341257 0.000250303267093
75 2 8.816542806 6.440465404 3.848820961 0.0 0.0 0.0 -0.000152174073702 -0.000445276644567 0.000154943817567
76 2 16.253352178 6.440465404 3.848820961 0.0 0.0 0.0 0.000109278479769 -0.000293679620058 -0.000125159843863
77 2 5.098138235 8.3e-08 10.785671101 0.0 0.0 0.0 -0.000100614963944 0.000931896293719 0.00081728390649
78 2 12.534947607 8.3e-08 10.785671101 0.0 0.0 0.0 -0.000334928851619 0.000270813105052 -0.000236480169056
79 2 8.816542849 6.440465397 10.785671101 0.0 0.0 0.0 -0.000152182076089 -0.000445287023755 -0.000141128198265
80 2 16.253352221 6.440465397 10.785671101 0.0 0.0 0.0 0.000109270660879 -0.000293684193255 0.000138981881511
81 1 12.472986142 12.880930033 4.819894401 0.0 0.0 0.0 -7.50428638995e-05 -0.00019942037493 0.000173367565313
82 1 19.909795513 12.880930033 4.819894401 0.0 0.0 0.0 3.54701357529e-05 -9.14669463778e-05 -5.34334502299e-05
83 1 8.754581528 6.440464719 4.819894401 0.0 0.0 0.0 -3.01095204613e-06 0.000149297496902 -2.59446596252e-05
84 1 16.191390899 6.440464719 4.819894401 0.0 0.0 0.0 -8.67469387522e-05 0.000100801634564 7.99916839789e-05
85 1 12.472986185 12.880930026 11.756744541 0.0 0.0 0.0 0.000318067435286 -0.000894057125449 -0.000800492488792
86 1 19.909795557 12.880930026 11.756744541 0.0 0.0 0.0 0.000225634700242 -0.000205729069649 0.000191794505318
87 1 8.754581571 6.440464712 11.756744541 0.0 0.0 0.0 3.2170237118e-05 0.000310525712292 0.000110725936903
88 1 16.191390943 6.440464712 11.756744541 0.0 0.0 0.0 -0.000131965748844 0.000215163665733 -4.46245878501e-05
89 1 4.172478132 1.2e-08 3.541396305 0.0 0.0 0.0 -0.000257927990296 -0.00104178764304 0.000834816887578
90 1 11.609287504 1.2e-08 3.541396305 0.0 0.0 0.0 0.000109087243749 -9.05448846964e-05 -6.82257725332e-06
91 1 7.890882746 6.440465326 3.541396305 0.0 0.0 0.0 6.3051888309e-05 0.0002744688784 -1.4237049449e-06
92 1 15.327692118 6.440465326 3.541396305 0.0 0.0 0.0 -0.000187984906605 0.000129250111836 9.72234572614e-05
93 1 4.172478175 5e-09 10.478246445 0.0 0.0 0.0 -0.000263891163718 -0.000501375019207 -0.000245458851032
94 1 11.609287547 5e-09 10.478246445 0.0 0.0 0.0 4.93464444862e-05 -6.23591464366e-05 9.71184345285e-05
95 1 7.890882789 6.440465319 10.478246445 0.0 0.0 0.0 3.35546968472e-05 0.000200418414571 9.81872399043e-05
96 1 15.327692161 6.440465319 10.478246445 0.0 0.0 0.0 -0.000159760025189 8.86688946087e-05 1.70375786815e-05
97 2 12.324550744 4.415115375 3.848820709 0.0 0.0 0.0 0.000154395400325 -8.44304267322e-05 -5.67216213976e-06
98 2 4.887741372 4.415115375 3.848820709 0.0 0.0 0.0 -0.000292283150546 -0.000552587010703 -0.000474895953301
99 2 16.042955358 10.855580689 3.848820709 0.0 0.0 0.0 -0.000110226367677 6.83453986983e-05 -5.66703195526e-06
100 2 8.606145986 10.855580689 3.848820709 0.0 0.0 0.0 -5.40848320895e-05 -0.000140024503912 0.00163516657461
101 2 12.324550787 4.415115367 10.785670849 0.0 0.0 0.0 0.000154404843655 -8.44246378918e-05 2.66272395537e-05
102 2 4.887741415 4.415115367 10.785670849 0.0 0.0 0.0 -0.000292292802194 -0.000552563885382 0.000495843359231
103 2 16.042955401 10.855580681 10.785670849 0.0 0.0 0.0 -0.000110219799528 6.83533219454e-05 2.66253434083e-05
104 2 8.606146029 10.855580681 10.785670849 0.0 0.0 0.0 -5.40982036947e-05 -0.00014000032742 -0.00161422463184
105 1 12.355530592 4.361455296 4.81989398 0.0 0.0 0.0 -2.51324269991e-05 -6.82652054704e-06 3.81121667861e-05
106 1 4.91872122 4.361455296 4.81989398 0.0 0.0 0.0 9.8645639013e-05 0.000106502326042 0.00018411337183
107 1 16.073935206 10.801920609 4.81989398 0.0 0.0 0.0 6.7650064417e-05 -6.92145242365e-05 4.1173170459e-05
108 1 8.637125834 10.801920609 4.81989398 0.0 0.0 0.0 -1.86630090764e-05 -0.000126299728314 -0.000261277198757
109 1 12.355530635 4.361455288 11.75674412 0.0 0.0 0.0 -7.14663455965e-05 1.2670087576e-05 2.54710741399e-05
110 1 4.918721263 4.361455288 11.75674412 0.0 0.0 0.0 0.000272947206794 0.000420160077255 -0.000258392806033
111 1 16.073935249 10.801920602 11.75674412 0.0 0.0 0.0 0.000107365996337 -0.000104466934758 2.13550452864e-05
112 1 8.637125877 10.801920602 11.75674412 0.0 0.0 0.0 0.000397262581404 0.000506744823772 0.00183515546734
113 1 12.787381758 3.613470486 3.541396271 0.0 0.0 0.0 -7.34596231294e-05 -9.47352604022e-05 7.80659929488e-05
114 1 5.350572387 3.613470486 3.541396271 0.0 0.0 0.0 0.000325040307459 0.000235270380983 0.000418559346054
115 1 16.505786372 10.0539358 3.541396271 0.0 0.0 0.0 8.98223595316e-05 -4.16289275448e-05 4.73784950801e-05
116 1 9.068977001 10.0539358 3.541396271 0.0 0.0 0.0 -2.02168334038e-05 0.000405114807207 -0.000809415865458
117 1 12.787381802 3.613470479 10.478246411 0.0 0.0 0.0 -4.39621763666e-05 -8.82780129949e-05 3.54704829703e-05
118 1 5.35057243 3.613470479 10.478246411 0.0 0.0 0.0 0.000198880328039 9.19745365661e-05 -0.000209972050093
119 1 16.505786416 10.053935793 10.478246411 0.0 0.0 0.0 7.5618151384e-05 -3.89722454899e-05 6.19095988605e-05
120 1 9.068977044 10.053935793 10.478246411 0.0 0.0 0.0 -5.08089462441e-05 8.91585966316e-05 0.000475181045351
121 2 16.042954883 2.025349614 3.848821218 0.0 0.0 0.0 0.00085833160081 0.00043063293938 -0.000802729600343
122 2 8.606145512 2.025349614 3.848821218 0.0 0.0 0.0 -0.000309133358131 6.22046313728e-08 -0.000121357393151
123 2 19.761359497 8.465814928 3.848821218 0.0 0.0 0.0 -0.000309691317604 -0.000304242615512 0.000158136961526
124 2 12.324550126 8.465814928 3.848821218 0.0 0.0 0.0 0.000401161804686 -0.000104446081724 0.000253190847413
125 2 16.042954927 2.025349607 10.785671358 0.0 0.0 0.0 0.000858321321815 0.000430627879674 0.000823513517877
126 2 8.606145555 2.025349607 10.785671358 0.0 0.0 0.0 -0.000309122300664 8.18347759055e-08 0.000142136225948
127 2 19.761359541 8.46581492 10.785671358 0.0 0.0 0.0 -0.000309666539958 -0.000304193086466 -0.000137364660352
128 2 12.324550169 8.46581492 10.785671358 0.0 0.0 0.0 0.000401191111961 -0.00010438683712 -0.000232413351208
129 1 16.07393341 2.079010738 4.819894452 0.0 0.0 0.0 -0.000134981092891 -0.000131018403641 0.000168405222025
130 1 8.637124038 2.079010738 4.819894452 0.0 0.0 0.0 0.000137040978579 3.28406688299e-05 8.54116734575e-05
131 1 19.792338024 8.519476052 4.819894452 0.0 0.0 0.0 0.000132404978645 0.000145581180188 -1.44520285472e-05
132 1 12.355528653 8.519476052 4.819894452 0.0 0.0 0.0 -8.61938696172e-05 6.12896695419e-05 -4.36198118177e-05
133 1 16.073933453 2.079010731 11.756744592 0.0 0.0 0.0 -0.000984897009865 -0.000225789610073 -0.000818305909111
134 1 8.637124082 2.079010731 11.756744592 0.0 0.0 0.0 0.000260676240158 4.61998852832e-05 -4.1086102756e-05
135 1 19.792338067 8.519476045 11.756744592 0.0 0.0 0.0 0.000248632002088 0.000258589813775 0.000106103839094
136 1 12.355528696 8.519476045 11.756744592 0.0 0.0 0.0 -0.000266155103285 0.000170574641251 0.00018383082396
137 1 1.632167798 2.826994038 3.541396624 0.0 0.0 0.0 -0.000422405056955 0.00028480136839 0.00072849356343
138 1 9.06897717 2.826994038 3.541396624 0.0 0.0 0.0 0.000168497949421 0.00011571912042 9.06264862134e-05
139 1 5.350572412 9.267459352 3.541396624 0.0 0.0 0.0 0.000285600143976 0.000223396135124 -0.000112994106677
140 1 12.787381784 9.267459352 3.541396624 0.0 0.0 0.0 -0.000235483312459 2.23685746437e-05 -6.69272127151e-05
141 1 1.632167841 2.826994031 10.478246764 0.0 0.0 0.0 -0.000176836196459 0.000128323527386 -0.000307031375106
142 1 9.068977213 2.826994031 10.478246764 0.0 0.0 0.0 0.000128388274661 0.000103299686165 2.47373482081e-05
143 1 5.350572456 9.267459345 10.478246764 0.0 0.0 0.0 0.000202331244918 0.000164881174243 0.000193882783395
144 1 12.787381827 9.267459345 10.478246764 0.0 0.0 0.0 -0.000137984523202 8.31762777654e-06 0.000139556809173
145 2 12.258736453 12.880930313 6.469757221 0.0 0.0 0.0 1.99775808414e-05 0.000273724076293 -0.00014314440832
146 2 19.695545825 12.880930313 6.469757221 0.0 0.0 0.0 -0.000144282899759 0.000127988843018 7.60302556818e-06
147 2 8.540331839 6.440464999 6.469757221 0.0 0.0 0.0 -0.000110617482555 -0.000218768092181 -6.59594794976e-06
148 2 15.97714121 6.440464999 6.469757221 0.0 0.0 0.0 2.75806946874e-05 -0.000138859856995 -8.38035630379e-05
149 2 12.258736496 12.880930306 13.40660736 0.0 0.0 0.0 -0.0315087306834 0.00794891271601 0.0122532719835
150 2 19.695545868 12.880930306 13.40660736 0.0 0.0 0.0 -0.000851525343472 0.000518428318995 -0.000215853891811
151 2 8.540331882 6.440464992 13.40660736 0.0 0.0 0.0 -0.000243589032141 -0.000788938730489 -0.000126368302576
152 2 15.977141254 6.440464992 13.40660736 0.0 0.0 0.0 0.000192506034279 -0.000535397927703 1.97886766556e-05
153 1 5.331166141 0.766954845 6.788243965 0.0 0.0 0.0 -4.07660231044e-05 -6.44641554391e-05 2.31775458689e-05
154 1 12.767975512 0.766954845 6.788243965 0.0 0.0 0.0 -5.27819481304e-05 -6.23501580572e-05 -3.58917460317e-05
155 1 9.049570755 7.207420159 6.788243965 0.0 0.0 0.0 -5.85945289703e-05 0.000111103505071 -5.28109585902e-05
156 1 16.486380127 7.207420159 6.788243965 0.0 0.0 0.0 -6.62954756652e-05 8.36981463869e-05 -2.02000491885e-05
157 1 5.331166184 0.766954838 13.725094105 0.0 0.0 0.0 0.00256482409748 0.000146726074926 -0.000563406012788
158 1 12.767975556 0.766954838 13.725094105 0.0 0.0 0.0 0.000183752118398 -0.000442730447641 2.46358329661e-05
159 1 9.049570798 7.207420151 13.725094105 0.0 0.0 0.0 -2.98514548102e-05 0.000609148919 4.61227942546e-05
160 1 16.48638017 7.207420151 13.725094105 0.0 0.0 0.0 -8.18149196206e-05 0.000220071965868 -3.07841667042e-05
161 1 16.486380702 5.673510068 6.788243516 0.0 0.0 0.0 -0.000102028971875 5.17033697985e-05 1.4905613677e-06
162 1 9.04957133 5.673510068 6.788243516 0.0 0.0 0.0 -2.87067233323e-05 7.11757841997e-05 -2.48297690497e-05
163 1 20.204785316 12.113975382 6.788243516 0.0 0.0 0.0 -1.87128098637e-06 -6.75031212623e-05 -5.19429085281e-05
164 1 12.767975944 12.113975382 6.788243516 0.0 0.0 0.0 -0.000103223035161 -0.000135123300415 -1.64999602603e-05
165 1 16.486380745 5.673510061 13.725093655 0.0 0.0 0.0 -0.000247662345878 0.000447438408504 -8.07826817866e-05
166 1 9.049571373 5.673510061 13.725093655 0.0 0.0 0.0 2.56370376208e-05 0.00024861390547 -1.82293329786e-05
167 1 20.204785359 12.113975375 13.725093655 0.0 0.0 0.0 0.000695069896466 -0.000183267200393 9.50747406536e-05
168 1 12.767975987 12.113975375 13.725093655 0.0 0.0 0.0 -0.000335711177397 -0.00157433132243 6.55494494877e-05
169 2 12.462655523 4.175912014 6.46975888 0.0 0.0 0.0 9.03802120841e-05 -7.65725079554e-05 -5.69368327094e-05
170 2 5.025846151 4.175912014 6.46975888 0.0 0.0 0.0 -8.30952085131e-05 -0.000215386408108 -0.000161971951395
171 2 16.181060137 10.616377328 6.46975888 0.0 0.0 0.0 -4.97279558154e-05 4.51287886366e-06 -5.69800707463e-05
172 2 8.744250765 10.616377328 6.46975888 0.0 0.0 0.0 8.35709603536e-05 7.38375030412e-05 0.000138252962153
173 2 12.462655566 4.175912007 13.406609019 0.0 0.0 0.0 0.000256755179645 -0.000136606658934 -4.50303565553e-05
174 2 5.025846194 4.175912007 13.406609019 0.0 0.0 0.0 -0.000782350844937 -0.00143042132139 0.000275663476056
175 2 16.18106018 10.616377321 13.406609019 0.0 0.0 0.0 -0.000185129531768 0.00011940498534 -4.48887844036e-05
176 2 8.744250808 10.616377321 13.406609019 0.0 0.0 0.0 -0.0266024051404 -0.0574364269271 -0.0248910018527
177 1 4.107023344 4.233448053 6.788243333 0.0 0.0 0.0 2.11638372932e-05 6.2958600095e-06 2.27036917877e-05
178 1 11.543832716 4.233448053 6.788243333 0.0 0.0 0.0 1.12542234716e-05 -3.08105043572e-05 -2.25046371675e-05
179 1 7.825427958 10.673913367 6.788243333 0.0 0.0 0.0 3.75384125061e-05 -8.73708903582e-05 -7.45028942632e-05
180 1 15.26223733 10.673913367 6.788243333 0.0 0.0 0.0 1.38860488328e-05 -0.000102847759106 -1.73821041786e-05
181 1 4.107023387 4.233448046 13.725093473 0.0 0.0 0.0 0.000301372800829 0.00102916904001 -0.000209470666158
182 1 11.543832759 4.233448046 13.725093473 0.0 0.0 0.0 -1.07219193562e-06 1.33901958526e-05 -1.70073835596e-05
183 1 7.825428001 10.67391336 13.725093473 0.0 0.0 0.0 0.00230547927249 0.00109123960396 0.000293902779969
184 1 15.262237373 10.67391336 13.725093473 0.0 0.0 0.0 2.87274706808e-05 -0.000242495262559 -2.84837643187e-05
185 1 12.872237203 5.00040447 6.78824545 0.0 0.0 0.0 -1.1422470609e-05 -1.55467483997e-05 -2.76552555756e-05
186 1 5.435427832 5.00040447 6.78824545 0.0 0.0 0.0 0.000113881509058 6.188602126e-05 -1.58205253911e-05
187 1 16.590641818 11.440869783 6.78824545 0.0 0.0 0.0 0.000108333295623 -8.04567263511e-05 -2.8732158882e-05
188 1 9.153832446 11.440869783 6.78824545 0.0 0.0 0.0 -3.45296636176e-05 -0.000187367188833 -7.37145069498e-05
189 1 12.872237247 5.000404462 13.72509559 0.0 0.0 0.0 -0.000140455871113 7.32982287587e-05 -3.35815145847e-05
190 1 5.435427875 5.000404462 13.72509559 0.0 0.0 0.0 0.000315367318375 0.00039571617363 -4.72772078012e-05
191 1 16.590641861 11.440869776 13.72509559 0.0 0.0 0.0 0.00024782816771 -0.000138453200937 -3.14235595366e-05
192 1 9.153832489 11.440869776 13.72509559 0.0 0.0 0.0 0.00805159585048 0.0163086739396 0.0113050177421
193 2 1.307441393 2.264553585 6.469759523 0.0 0.0 0.0 0.000220668077476 0.000237236499277 -0.000149161253789
194 2 8.744250764 2.264553585 6.469759523 0.0 0.0 0.0 -0.000140475206206 3.66891421327e-05 -8.9989805983e-05
195 2 5.025846007 8.705018899 6.469759523 0.0 0.0 0.0 -0.000140587953457 -0.000124491364165 -1.30225936316e-05
196 2 12.462655379 8.705018899 6.469759523 0.0 0.0 0.0 0.000176191273989 1.97171371778e-05 1.09310313066e-06
197 2 1.307441436 2.264553578 13.406609663 0.0 0.0 0.0 0.0217035410558 -0.0280491347045 0.0135438603347
198 2 8.744250808 2.264553578 13.406609663 0.0 0.0 0.0 -0.000566620737943 -1.70862986284e-05 1.34362948266e-05
199 2 5.02584605 8.705018892 13.406609663 0.0 0.0 0.0 -0.000565920754491 -0.000525284282159 -0.000132092858758
200 2 12.462655422 8.705018892 13.406609663 0.0 0.0 0.0 0.000861973779713 -0.000396991905066 -0.000220564049481
201 1 1.717022388 1.440060952 6.788246651 0.0 0.0 0.0 -5.10363502596e-05 -9.42310097009e-05 -7.8767185389e-06
202 1 9.15383176 1.440060952 6.788246651 0.0 0.0 0.0 0.000118258065059 2.77859167709e-05 -2.73593623039e-05
203 1 5.435427002 7.880526266 6.788246651 0.0 0.0 0.0 0.000119442496221 0.000162260860401 -4.1520939756e-05
204 1 12.872236374 7.880526266 6.788246651 0.0 0.0 0.0 -1.90565198094e-05 8.74258092685e-05 -3.93615280798e-05
205 1 1.717022431 1.440060945 13.725096791 0.0 0.0 0.0 -0.0127311064866 0.00437249331969 -0.00605840879586
206 1 9.153831803 1.440060945 13.725096791 0.0 0.0 0.0 0.000296637303661 -7.30954375206e-06 -4.19787682075e-05
207 1 5.435427045 7.880526258 13.725096791 0.0 0.0 0.0 0.00031244769036 0.000437068559833 -1.45582975644e-05
208 1 12.872236417 7.880526258 13.725096791 0.0 0.0 0.0 -0.000180035742319 0.000212445118848 -2.37168330668e-05
209 1 15.262237079 2.207018097 6.788243067 0.0 0.0 0.0 -6.99965133466e-05 -2.72412836797e-05 -8.80356993038e-06
210 1 7.825427708 2.207018097 6.788243067 0.0 0.0 0.0 9.2728242196e-05 6.48084054591e-05 6.51731295398e-06
211 1 18.980641693 8.647483411 6.788243067 0.0 0.0 0.0 7.42270442342e-05 0.000127228278746 -2.07876660804e-05
212 1 11.543832322 8.647483411 6.788243067 0.0 0.0 0.0 -6.35134199671e-05 7.9098207743e-05 -4.77652418662e-05
213 1 15.262237122 2.207018089 13.725093207 0.0 0.0 0.0 -0.00109195224023 -0.000739525392963 7.94973604291e-05
214 1 7.825427751 2.207018089 13.725093207 0.0 0.0 0.0 0.000497458421669 0.00015118670616 -7.37385309361e-05
215 1 18.980641736 8.647483403 13.725093207 0.0 0.0 0.0 0.000210087205044 0.000256568408861 -1.06048026934e-05
216 1 11.543832365 8.647483403 13.725093207 0.0 0.0 0.0 -0.000568327238462 0.000651829611417 0.000114009513766
217 2 10.05169036 12.880930562 3.001331049 0.0 0.0 0.0 0.00425723737815 0.00789715366024 -0.00338662208197
218 2 17.488499731 12.880930562 3.001331049 0.0 0.0 0.0 -0.000290620335877 0.000138980998667 -4.24030112579e-05
219 2 6.333285745 6.440465248 3.001331049 0.0 0.0 0.0 -0.00029062393993 -0.000587570776351 -4.19147683363e-05
220 2 13.770095117 6.440465248 3.001331049 0.0 0.0 0.0 0.000338618306196 -0.000224279232621 -4.1998778965e-05
221 2 10.051690403 12.880930555 9.938181189 0.0 0.0 0.0 0.000582365122141 0.000924422786805 -4.31577068674e-05
222 2 17.488499774 12.880930555 9.938181189 0.0 0.0 0.0 -0.000167408804814 9.71029382178e-05 -4.30733155447e-05
223 2 6.333285789 6.440465241 9.938181189 0.0 0.0 0.0 -0.00016747469578 -0.000374103007372 -4.33454086162e-05
224 2 13.77009516 6.440465241 9.938181189 0.0 0.0 0.0 0.000240660252408 -0.000138485793284 -4.35526419751e-05
225 1 13.26085702 5.67351034 3.319819519 0.0 0.0 0.0 -6.78209843241e-05 7.20702499665e-05 -1.67125441001e-05
226 1 5.824047648 5.67351034 3.319819519 0.0 0.0 0.0 0.000228716944919 0.000267732698112 6.69590962668e-05
227 1 16.979261634 12.113975653 3.319819519 0.0 0.0 0.0 0.000203507220367 -7.98142025062e-05 -2.35083948897e-05
228 1 9.542452262 12.113975653 3.319819519 0.0 0.0 0.0 -0.000379118463717 -0.000690917601887 -0.00203146618935
229 1 13.260857063 5.673510332 10.256669659 0.0 0.0 0.0 -3.71008386475e-05 4.90990433335e-05 -3.82578036295e-05
230 1 5.824047691 5.673510332 10.256669659 0.0 0.0 0.0 0.000181652221928 0.000187876160927 -0.000106744151286
231 1 16.979261677 12.113975646 10.256669659 0.0 0.0 0.0 0.000168749432466 -6.61874611258e-05 -3.26321778454e-05
232 1 9.542452305 12.113975646 10.256669659 0.0 0.0 0.0 -0.00019930689443 -0.000452359787406 0.000479116245823
233 1 2.105642892 0.766955018 3.319818703 0.0 0.0 0.0 -0.000786683655541 -0.000882844004993 0.00111019123772
234 1 9.542452263 0.766955018 3.319818703 0.0 0.0 0.0 0.00022374578014 -3.26958239014e-05 7.99807149459e-06
235 1 5.824047506 7.207420332 3.319818703 0.0 0.0 0.0 0.000227995425251 0.000277861924083 -7.68250229776e-05
236 1 13.260856878 7.207420332 3.319818703 0.0 0.0 0.0 -9.06366439294e-05 0.00011855308613 -7.21242217487e-05
237 1 2.105642935 0.766955011 10.256668843 0.0 0.0 0.0 -0.000275221701649 -0.000459299595251 -0.000313481844896
238 1 9.542452307 0.766955011 10.256668843 0.0 0.0 0.0 0.000181689551272 -2.32366814335e-05 -5.27091188458e-05
239 1 5.824047549 7.207420325 10.256668843 0.0 0.0 0.0 0.000183899008265 0.000211794276661 1.78620862278e-05
240 1 13.260856921 7.207420325 10.256668843 0.0 0.0 0.0 -5.15017179441e-05 8.84804920382e-05 1.34361725879e-05
241 2 13.566178647 2.264553318 3.001331607 0.0 0.0 0.0 0.000266660803991 0.000541515339296 -4.60628568893e-05
242 2 6.129369276 2.264553318 3.001331607 0.0 0.0 0.0 -0.000921515042886 -0.000144575478653 -0.000821048215496
243 2 17.284583261 8.705018632 3.001331607 0.0 0.0 0.0 -0.000151346871047 -0.000181159174698 -4.57869508219e-05
244 2 9.84777389 8.705018632 3.001331607 0.0 0.0 0.0 0.000266555268452 -0.000827680875223 0.000728274898002
245 2 13.56617869 2.26455331 9.938181747 0.0 0.0 0.0 0.000126425638508 0.000298508270543 -4.68012993531e-05
246 2 6.129369319 2.26455331 9.938181747 0.0 0.0 0.0 -0.0003466779002 2.53727346258e-05 0.000390023895359
247 2 17.284583305 8.705018624 9.938181747 0.0 0.0 0.0 -0.000111358457285 -0.000112164577705 -4.71066720909e-05
248 2 9.847773933 8.705018624 9.938181747 0.0 0.0 0.0 0.000126355151962 -0.000246612013506 -0.000484118321258
249 1 14.485000752 2.20701716 3.319818255 0.0 0.0 0.0 -0.000375899781721 -0.000230437973536 9.63597503359e-05
250 1 7.048191381 2.20701716 3.319818255 0.0 0.0 0.0 0.000251316657628 9.81676096853e-05 0.000122705229323
251 1 18.203405367 8.647482473 3.319818255 0.0 0.0 0.0 0.000113900931067 0.00019869880153 -4.99263059018e-05
252 1 10.766595995 8.647482473 3.319818255 0.0 0.0 0.0 -0.000296437626424 0.000290486100112 -0.000319791716747
253 1 14.485000796 2.207017152 10.256668395 0.0 0.0 0.0 -0.000206433228825 -0.000121999958567 -9.51009483554e-05
254 1 7.048191424 2.207017152 10.256668395 0.0 0.0 0.0 0.000168863141095 8.52215200065e-05 -0.000159669456858
255 1 18.20340541 8.647482466 10.256668395 0.0 0.0 0.0 8.09388870792e-05 0.000166741180292 -4.71879488834e-06
256 1 10.766596038 8.647482466 10.256668395 0.0 0.0 0.0 -0.000180219014172 0.000173164667213 0.000181246228141
257 1 5.719786092 1.440061854 3.319818129 0.0 0.0 0.0 0.000413460589548 -9.24443419159e-05 0.000599779820266
258 1 13.156595464 1.440061854 3.319818129 0.0 0.0 0.0 2.13262652212e-05 -0.000215528785558 -0.000127346629605
259 1 9.438190706 7.880527168 3.319818129 0.0 0.0 0.0 -2.64058352832e-05 0.000369445126889 -0.000213651815981
260 1 16.875000078 7.880527168 3.319818129 0.0 0.0 0.0 -5.31754226478e-05 0.000181840931194 4.61583075018e-06
261 1 5.719786135 1.440061847 10.256668269 0.0 0.0 0.0 0.00012425684201 -7.08234146067e-05 -0.000373986577939
262 1 13.156595507 1.440061847 10.256668269 0.0 0.0 0.0 -2.53055818111e-05 -0.000122831311664 4.59208821609e-05
263 1 9.438190749 7.880527161 10.256668269 0.0 0.0 0.0 -4.40829730314e-05 0.000258171054948 0.000139602481034
264 1 16.875000121 7.880527161 10.256668269 0.0 0.0 0.0 -4.79938805267e-05 0.000149001137281 -4.75871530104e-05
265 2 2.410964342 4.175911908 3.001332195 0.0 0.0 0.0 0.000262567190756 -0.00091203998079 -0.000819178596169
266 2 9.847773713 4.175911908 3.001332195 0.0 0.0 0.0 -0.000147312333352 -0.000263738505156 -4.62900368737e-05
267 2 6.129368956 10.616377222 3.001332195 0.0 0.0 0.0 -0.000922686847838 -0.000226290202846 0.000735623405563
268 2 13.566178327 10.616377222 3.001332195 0.0 0.0 0.0 0.000262580963064 0.00045790911738 -4.91547686969e-05
269 2 2.410964385 4.175911901 9.938182334 0.0 0.0 0.0 0.000125591383274 -0.000331085729915 0.000388913762505
270 2 9.847773757 4.175911901 9.938182334 0.0 0.0 0.0 -0.000108126850008 -0.000194771464245 -4.82776655637e-05
271 2 6.129368999 10.616377215 9.938182334 0.0 0.0 0.0 -0.000344334219629 -5.60025933091e-05 -0.000487857332244
272 2 13.566178371 10.616377215 9.938182334 0.0 0.0 0.0 0.000125547464586 0.000215302463116 -4.65878475262e-05
273 1 16.875000507 5.000403535 3.319819181 0.0 0.0 0.0 -0.00016583308647 0.000198087286395 0.000128491117711