ITEM: TIMESTEP
0
ITEM: NUMBER OF ATOMS
288
ITEM: BOX BOUNDS xy xz yz xx yy zz
0.0 14.873618743 7.436809228
0.0 12.880930628 8.6e-08
0.0 13.87370028 -1.5e-08
ITEM: ATOMS id type x y z vx vy vz fx fy fz
1 2 2.338671397 1.12e-07 0.380392751 0.0 0.0 0.0 6.36016461719e-06 3.64791537905e-05 6.88854231548e-05
2 2 9.775480768 1.12e-07 0.380392751 0.0 0.0 0.0 9.70584410693e-05 -2.88998798733e-05 -2.55025782566e-05
3 2 6.057076011 6.440465426 0.380392751 0.0 0.0 0.0 -9.38304309123e-06 2.58330920728e-05 1.09763410321e-05
4 2 13.493885382 6.440465426 0.380392751 0.0 0.0 0.0 5.61814735815e-05 -2.15682703442e-05 1.72826327424e-05
5 2 2.33867144 1.04e-07 7.317242891 0.0 0.0 0.0 0.00239617323885 0.00169271162817 -0.00044407230398
6 2 9.775480812 1.04e-07 7.317242891 0.0 0.0 0.0 0.00102741541816 -0.000292584062412 0.000180783546851
7 2 6.057076054 6.440465418 7.317242891 0.0 0.0 0.0 -0.000126086040076 0.000127606405604 2.72454702148e-05
8 2 13.493885426 6.440465418 7.317242891 0.0 0.0 0.0 9.52444249344e-05 -6.25287921158e-05 1.30692251134e-05
9 1 2.400632363 4.61e-07 1.351465958 0.0 0.0 0.0 4.01838062801e-05 -3.11193301292e-05 -5.8261058948e-05
10 1 9.837441735 4.61e-07 1.351465958 0.0 0.0 0.0 -6.34800103396e-06 1.97352348134e-05 0.000109526214204
11 1 6.119036977 6.440465774 1.351465958 0.0 0.0 0.0 6.58023919967e-05 -1.57162782122e-05 4.43223197667e-05
12 1 13.555846349 6.440465774 1.351465958 0.0 0.0 0.0 2.52338391159e-05 9.19521644515e-06 3.5807399715e-05
13 1 2.400632406 4.53e-07 8.288316098 0.0 0.0 0.0 -0.000569505127777 -0.000361706266206 0.000697173376746
14 1 9.837441778 4.53e-07 8.288316098 0.0 0.0 0.0 -0.000338436423963 0.00011695179713 -0.000181378897133
15 1 6.11903702 6.440465767 8.288316098 0.0 0.0 0.0 0.000110084997414 -4.79393536227e-05 2.64059784588e-05
16 1 13.555846392 6.440465767 8.288316098 0.0 0.0 0.0 1.13491006398e-05 2.27539764777e-05 4.24620875686e-05
17 1 10.701141082 12.880930558 0.072968506 0.0 0.0 0.0 0.000114083544515 -1.30985472433e-05 5.65312624187e-05
18 1 18.137950453 12.880930558 0.072968506 0.0 0.0 0.0 7.24604980445e-06 9.566350023e-06 5.35484152828e-05
19 1 6.982736468 6.440465244 0.072968506 0.0 0.0 0.0 7.33128908563e-05 -2.78049077185e-05 5.6625492683e-05
20 1 14.419545839 6.440465244 0.072968506 0.0 0.0 0.0 4.99988220121e-05 2.63342980504e-05 5.50752641627e-05
21 1 10.701141125 12.880930551 7.009818646 0.0 0.0 0.0 -0.00207051789817 -0.0036782766783 -0.000576156816849
22 1 18.137950497 12.880930551 7.009818646 0.0 0.0 0.0 -0.00024040298624 5.20152654617e-05 6.91073665813e-05
23 1 6.982736511 6.440465237 7.009818646 0.0 0.0 0.0 9.9459571703e-05 -0.000133036395115 5.23851502142e-05
24 1 14.419545882 6.440465237 7.009818646 0.0 0.0 0.0 2.44737476632e-05 8.06096077193e-05 5.5736914392e-05
25 2 13.704282012 2.025348059 0.380394512 0.0 0.0 0.0 0.000116828745324 2.09840599338e-05 1.65431266396e-05
26 2 6.26747264 2.025348059 0.380394512 0.0 0.0 0.0 -0.000190357915549 4.04975820935e-05 -1.72434307848e-05
27 2 17.422686626 8.465813373 0.380394512 0.0 0.0 0.0 -1.42263196556e-07 -4.51468980692e-05 2.34609815808e-06
28 2 9.985877254 8.465813373 0.380394512 0.0 0.0 0.0 -1.72690312332e-05 0.000103525738689 1.43349465297e-05
29 2 13.704282055 2.025348052 7.317244652 0.0 0.0 0.0 0.000451424335047 -8.99592562875e-06 -8.32963639597e-06
30 2 6.267472684 2.025348052 7.317244652 0.0 0.0 0.0 -0.00263409597374 0.0132489276083 0.00603291762634
31 2 17.422686669 8.465813365 7.317244652 0.0 0.0 0.0 5.85123199401e-05 -0.000216912127549 1.91549267682e-05
32 2 9.985877298 8.465813365 7.317244652 0.0 0.0 0.0 1.00462108235e-05 0.000305559733623 9.00719043781e-07
33 1 13.673300338 2.079010187 1.351467718 0.0 0.0 0.0 -9.43018982459e-05 3.24893755756e-05 1.58193953044e-05
34 1 6.236490966 2.079010187 1.351467718 0.0 0.0 0.0 0.000111315597645 1.71803479788e-05 8.55320711492e-05
35 1 17.391704952 8.519475501 1.351467718 0.0 0.0 0.0 -2.29761084569e-05 7.1738180675e-05 4.07022893174e-05
36 1 9.95489558 8.519475501 1.351467718 0.0 0.0 0.0 -1.36109435426e-05 -1.70573575184e-05 2.03209844274e-05
37 1 13.673300381 2.07901018 8.288317858 0.0 0.0 0.0 -0.000222743666441 4.43536929138e-05 6.02553869899e-05
38 1 6.236491009 2.07901018 8.288317858 0.0 0.0 0.0 0.00126718923288 -0.000189017262134 -0.00208535743437
39 1 17.391704995 8.519475493 8.288317858 0.0 0.0 0.0 -4.4101886926e-05 0.000134005648169 1.73599681218e-05
40 1 9.954895623 8.519475493 8.288317858 0.0 0.0 0.0 -2.24008753683e-05 -9.34337747065e-05 5.11634271076e-05
41 1 13.241451457 2.826992613 0.072968839 0.0 0.0 0.0 -8.93264243271e-05 6.23779592268e-05 5.6496543055e-05
42 1 5.804642085 2.826992613 0.072968839 0.0 0.0 0.0 4.80100736595e-05 5.71009684531e-05 5.1662945587e-05
43 1 16.959856071 9.267457927 0.072968839 0.0 0.0 0.0 -3.75674137244e-05 9.81237785973e-05 5.55280263496e-05
44 1 9.523046699 9.267457927 0.072968839 0.0 0.0 0.0 -3.25068563498e-05 2.19203916136e-05 5.54634437962e-05
45 1 13.2414515 2.826992606 7.009818978 0.0 0.0 0.0 -0.000221282570287 7.02990255872e-05 5.14239859625e-05
46 1 5.804642128 2.826992606 7.009818978 0.0 0.0 0.0 0.00299351650123 -6.291903091e-05 0.000942894462101
47 1 16.959856114 9.26745792 7.009818978 0.0 0.0 0.0 -9.47726078029e-05 0.000238232150074 5.33110983101e-05
48 1 9.523046743 9.26745792 7.009818978 0.0 0.0 0.0 -7.41061258984e-05 -0.000120835617562 4.87288769829e-05
49 2 17.422687622 4.415117298 0.380394729 0.0 0.0 0.0 -3.54426818304e-05 -0.000103731927478 3.95780186814e-05
50 2 9.985878251 4.415117298 0.380394729 0.0 0.0 0.0 3.05235146857e-05 3.86728804457e-05 -1.46633630468e-05
51 2 21.141092236 10.855582612 0.380394729 0.0 0.0 0.0 7.52114769423e-05 -8.45502867652e-06 1.26457950239e-05
52 2 13.704282865 10.855582612 0.380394729 0.0 0.0 0.0 -0.000130541826739 -5.6299799788e-05 5.49651251079e-07
53 2 17.422687665 4.415117291 7.317244869 0.0 0.0 0.0 0.000207538790226 -0.000827972842206 -0.000120046187714
54 2 9.985878294 4.415117291 7.317244869 0.0 0.0 0.0 0.000307446207091 0.000345358597331 6.77150143427e-05
55 2 21.14109228 10.855582605 7.317244869 0.0 0.0 0.0 0.000255151199534 4.4559430084e-05 4.58167025719e-06
56 2 13.704282908 10.855582605 7.317244869 0.0 0.0 0.0 -0.00125353531138 -0.000586634989608 -8.52299971614e-05
57 1 2.518088606 4.36145465 1.351467896 0.0 0.0 0.0 -9.47915940216e-06 2.61203053819e-05 -1.63565461033e-05
58 1 9.954897977 4.36145465 1.351467896 0.0 0.0 0.0 -5.06968179915e-05 -6.94814638029e-05 6.85375499064e-05
59 1 6.23649322 10.801919964 1.351467896 0.0 0.0 0.0 -7.38734413154e-05 -3.89793419931e-05 2.4696395249e-05
60 1 13.673302591 10.801919964 1.351467896 0.0 0.0 0.0 5.80451537342e-05 -4.53109073919e-06 5.25994561359e-05
61 1 2.518088649 4.361454643 8.288318036 0.0 0.0 0.0 -6.91342619635e-05 0.000260349428214 0.000182360477965
62 1 9.95489802 4.361454643 8.288318036 0.0 0.0 0.0 -0.000142503964995 -0.00017365441515 -3.65475273702e-05
63 1 6.236493263 10.801919957 8.288318036 0.0 0.0 0.0 -0.000146503025508 -6.1202604151e-05 4.59836817304e-05
64 1 13.673302635 10.801919957 8.288318036 0.0 0.0 0.0 0.000407336861979 0.000287885823898 -7.781064167e-05
65 1 16.959856167 3.613473172 0.07296928 0.0 0.0 0.0 -3.11433911564e-05 -3.02327169448e-05 5.3584437722e-05
66 1 9.523046796 3.613473172 0.07296928 0.0 0.0 0.0 -4.41627849867e-05 -9.14018035683e-05 5.74953479815e-05
67 1 20.678260782 10.053938486 0.07296928 0.0 0.0 0.0 -6.09594833985e-05 -6.44683817999e-05 5.63217209266e-05
68 1 13.24145141 10.053938486 0.07296928 0.0 0.0 0.0 1.36777061536e-05 -5.79505483429e-05 5.26387149748e-05
69 1 16.959856211 3.613473164 7.00981942 0.0 0.0 0.0 -0.00040419465039 0.000428873617651 6.95919055271e-05
70 1 9.523046839 3.613473164 7.00981942 0.0 0.0 0.0 -0.000333769344978 -0.000371385029093 4.05173640322e-05
71 1 20.678260825 10.053938478 7.00981942 0.0 0.0 0.0 -0.00011713653741 -6.96154856139e-05 5.21290792096e-05
72 1 13.241451453 10.053938478 7.00981942 0.0 0.0 0.0 0.000203886956699 -0.000175241546232 7.2954615499e-05
73 2 5.098138192 9.1e-08 3.848820961 0.0 0.0 0.0 -0.00131994933161 0.0002330325844 0.000867511798472
74 2 12.534947564 9.1e-08 3.848820961 0.0 0.0 0.0 0.000274735340678 -1.30880403686e-05 -3.18978129453e-05
75 2 8.816542806 6.440465404 3.848820961 0.0 0.0 0.0 -1.39468868771e-05 0.000182939953932 -4.29883794381e-05
76 2 16.253352178 6.440465404 3.848820961 0.0 0.0 0.0 7.64107419393e-06 -0.000172270413085 4.54699910739e-05
77 2 5.098138235 8.3e-08 10.785671101 0.0 0.0 0.0 -0.000627260133555 4.22181175576e-05 -0.000211510138374
78 2 12.534947607 8.3e-08 10.785671101 0.0 0.0 0.0 0.000197954334417 -8.89414396865e-06 3.89927589165e-05
79 2 8.816542849 6.440465397 10.785671101 0.0 0.0 0.0 -2.21066563938e-05 0.000133150359076 4.75690132458e-05
80 2 16.253352221 6.440465397 10.785671101 0.0 0.0 0.0 -5.73941435744e-06 -0.000129063063399 -2.53955878727e-05
81 1 12.472986142 12.880930033 4.819894401 0.0 0.0 0.0 0.00167324353435 -0.0006281307999 -0.00183335857025
82 1 19.909795513 12.880930033 4.819894401 0.0 0.0 0.0 -0.000239662537732 8.07328958442e-06 4.28627774377e-05
83 1 8.754581528 6.440464719 4.819894401 0.0 0.0 0.0 -5.83273918027e-05 -0.000119643928817 5.13089363826e-05
84 1 16.191390899 6.440464719 4.819894401 0.0 0.0 0.0 -6.7929134793e-05 0.00011559571148 1.20219878205e-05
85 1 12.472986185 12.880930026 11.756744541 0.0 0.0 0.0 8.09997227217e-05 5.29330499916e-07 4.28938521296e-05
86 1 19.909795557 12.880930026 11.756744541 0.0 0.0 0.0 -0.000121956363098 3.61923227325e-06 2.11589304244e-05
87 1 8.754581571 6.440464712 11.756744541 0.0 0.0 0.0 -4.41194548993e-05 -4.44106629872e-05 1.64680781046e-05
88 1 16.191390943 6.440464712 11.756744541 0.0 0.0 0.0 -4.82921681435e-05 4.76259344979e-05 3.88750961584e-05
89 1 4.172478132 1.2e-08 3.541396305 0.0 0.0 0.0 6.30253089071e-06 -0.000172166619426 -0.000385454535067
90 1 11.609287504 1.2e-08 3.541396305 0.0 0.0 0.0 -0.000205814348669 2.18114140547e-05 0.000116321607266
91 1 7.890882746 6.440465326 3.541396305 0.0 0.0 0.0 -5.01176783766e-05 -7.23726251838e-05 7.90513829179e-05
92 1 15.327692118 6.440465326 3.541396305 0.0 0.0 0.0 -8.91696709702e-05 5.49371341791e-05 4.14594229168e-05
93 1 4.172478175 5e-09 10.478246445 0.0 0.0 0.0 0.000151939524588 -0.000117434876519 0.00048591559434
94 1 11.609287547 5e-09 10.478246445 0.0 0.0 0.0 -0.000203497807276 1.89398432311e-05 -6.71295569036e-06
95 1 7.890882789 6.440465319 10.478246445 0.0 0.0 0.0 -5.29141945757e-05 -7.21522628677e-05 2.85511914328e-05
96 1 15.327692161 6.440465319 10.478246445 0.0 0.0 0.0 -8.86542181438e-05 5.79733422378e-05 6.52745499164e-05
97 2 12.324550744 4.415115375 3.848820709 0.0 0.0 0.0 0.000202293892302 9.41605115514e-06 -8.45321786091e-06
98 2 4.887741372 4.415115375 3.848820709 0.0 0.0 0.0 -0.000452054312944 -0.000156022443352 0.000109658258067
99 2 16.042955358 10.855580689 3.848820709 0.0 0.0 0.0 8.22133758857e-05 -0.000360475643323 -0.000252325824667
100 2 8.606145986 10.855580689 3.848820709 0.0 0.0 0.0 0.000163362863119 0.000204380402267 0.0001662598694
101 2 12.324550787 4.415115367 10.785670849 0.0 0.0 0.0 0.00015700957184 -1.97355802586e-07 2.68740575357e-05
102 2 4.887741415 4.415115367 10.785670849 0.0 0.0 0.0 -0.0002550346844 -8.12691339122e-05 -4.50688000146e-05
103 2 16.042955401 10.855580681 10.785670849 0.0 0.0 0.0 4.04201963356e-05 -0.000217271109966 0.000202632161793
104 2 8.606146029 10.855580681 10.785670849 0.0 0.0 0.0 0.000114441709907 0.000131373819932 -0.000127363940942
105 1 12.355530592 4.361455296 4.81989398 0.0 0.0 0.0 -9.28311829411e-05 -5.72936793013e-05 4.27346627198e-05
106 1 4.91872122 4.361455296 4.81989398 0.0 0.0 0.0 0.000383814634074 0.000105672917782 -3.35414642944e-05
107 1 16.073935206 10.801920609 4.81989398 0.0 0.0 0.0 -6.72903854387e-05 0.000263809969197 0.000197088444396
108 1 8.637125834 10.801920609 4.81989398 0.0 0.0 0.0 -9.76800139714e-05 -0.000201025954539 -4.53196450168e-05
109 1 12.355530635 4.361455288 11.75674412 0.0 0.0 0.0 -2.79487413639e-05 -4.28682338957e-05 2.74442496645e-05
110 1 4.918721263 4.361455288 11.75674412 0.0 0.0 0.0 9.36413391495e-05 -1.9773404894e-05 4.61418522481e-05
111 1 16.073935249 10.801920602 11.75674412 0.0 0.0 0.0 2.68556911833e-05 1.61441871776e-05 -2.0316392285e-05
112 1 8.637125877 10.801920602 11.75674412 0.0 0.0 0.0 -4.98529403014e-06 -7.7798931411e-05 7.5100458241e-05
113 1 12.787381758 3.613470486 3.541396271 0.0 0.0 0.0 -7.99515538387e-05 -5.29094461285e-05 5.35476388246e-05
114 1 5.350572387 3.613470486 3.541396271 0.0 0.0 0.0 0.000338646579411 -6.296248727e-05 6.30217672228e-05
115 1 16.505786372 10.0539358 3.541396271 0.0 0.0 0.0 7.36593867785e-06 3.46429776736e-05 0.000102446649205
116 1 9.068977001 10.0539358 3.541396271 0.0 0.0 0.0 9.57423896554e-06 -0.000146412281248 5.25943202618e-06
117 1 12.787381802 3.613470479 10.478246411 0.0 0.0 0.0 -7.74224677143e-05 -5.34995549842e-05 5.55278453242e-05
118 1 5.35057243 3.613470479 10.478246411 0.0 0.0 0.0 0.000300694462963 -5.68765104284e-05 5.03793825821e-05
119 1 16.505786416 10.053935793 10.478246411 0.0 0.0 0.0 -3.28847095497e-07 4.66827467515e-05 -3.08339513327e-06
120 1 9.068977044 10.053935793 10.478246411 0.0 0.0 0.0 1.22532909073e-06 -0.00015495881636 0.000111873131329
121 2 16.042954883 2.025349614 3.848821218 0.0 0.0 0.0 0.000418129620168 -0.000134923759645 0.000420815230098
122 2 8.606145512 2.025349614 3.848821218 0.0 0.0 0.0 0.000384602858443 0.000321391168442 -0.000686460992891
123 2 19.761359497 8.465814928 3.848821218 0.0 0.0 0.0 6.4856759102e-05 -9.12484037485e-06 3.37646897197e-06
124 2 12.324550126 8.465814928 3.848821218 0.0 0.0 0.0 -8.25347542998e-05 8.5098393211e-05 3.50570717268e-05
125 2 16.042954927 2.025349607 10.785671358 0.0 0.0 0.0 0.000209635421825 -7.01864955963e-05 -0.000271952280882
126 2 8.606145555 2.025349607 10.785671358 0.0 0.0 0.0 0.000120504464541 0.000158408010005 0.000410444018204
127 2 19.761359541 8.46581492 10.785671358 0.0 0.0 0.0 5.76434694142e-05 -3.97653523443e-07 1.67179543504e-05
128 2 12.324550169 8.46581492 10.785671358 0.0 0.0 0.0 -6.41982854375e-05 6.12346406814e-05 -7.34521190566e-06
129 1 16.07393341 2.079010738 4.819894452 0.0 0.0 0.0 -0.000359092229046 0.000159568112887 -0.000201439244269
130 1 8.637124038 2.079010738 4.819894452 0.0 0.0 0.0 -0.000486692259428 -0.000290295983961 0.000548446284462
131 1 19.792338024 8.519476052 4.819894452 0.0 0.0 0.0 3.08409799039e-07 5.37725555071e-05 3.69948282339e-05
132 1 12.355528653 8.519476052 4.819894452 0.0 0.0 0.0 8.63428621657e-05 -1.56343511075e-05 2.21906077216e-05
133 1 16.073933453 2.079010731 11.756744592 0.0 0.0 0.0 -1.40143338602e-05 5.05977336106e-05 0.000104079201817
134 1 8.637124082 2.079010731 11.756744592 0.0 0.0 0.0 2.86830289828e-05 6.9361555493e-06 -5.73515230984e-05
135 1 19.792338067 8.519476045 11.756744592 0.0 0.0 0.0 1.27689505501e-05 4.07703671975e-05 3.11903720346e-05
136 1 12.355528696 8.519476045 11.756744592 0.0 0.0 0.0 5.09584194982e-05 1.85239404151e-05 3.80382642675e-05
137 1 1.632167798 2.826994038 3.541396624 0.0 0.0 0.0 -6.08367669944e-05 0.00017865785676 -0.000124416844714
138 1 9.06897717 2.826994038 3.541396624 0.0 0.0 0.0 -5.42611939435e-05 -5.51083693323e-05 0.000193159155966
139 1 5.350572412 9.267459352 3.541396624 0.0 0.0 0.0 -2.28537769612e-05 5.48819751194e-05 5.64997110352e-05
140 1 12.787381784 9.267459352 3.541396624 0.0 0.0 0.0 0.000118561689439 4.8285625968e-05 4.39715527268e-05
141 1 1.632167841 2.826994031 10.478246764 0.0 0.0 0.0 -6.24979529278e-05 0.000170762542825 0.000230061515215
142 1 9.068977213 2.826994031 10.478246764 0.0 0.0 0.0 -6.78234210119e-05 -5.69140649162e-05 -0.000105462321123
143 1 5.350572456 9.267459345 10.478246764 0.0 0.0 0.0 -2.28673068744e-05 5.52361823427e-05 5.31967675338e-05
144 1 12.787381827 9.267459345 10.478246764 0.0 0.0 0.0 0.000121720642229 5.31905513509e-05 6.12609075944e-05
145 2 12.258736453 12.880930313 6.469757221 0.0 0.0 0.0 -0.161910516946 -0.168761492248 -0.0893310672126
146 2 19.695545825 12.880930313 6.469757221 0.0 0.0 0.0 0.000412606995189 -2.01631860089e-05 -5.2463683139e-05
147 2 8.540331839 6.440464999 6.469757221 0.0 0.0 0.0 -7.72107465992e-06 0.000282598866087 -5.41708491669e-05
148 2 15.97714121 6.440464999 6.469757221 0.0 0.0 0.0 2.07678640265e-05 -0.000256725561458 -4.1784603472e-05
149 2 12.258736496 12.880930306 13.40660736 0.0 0.0 0.0 -0.00022357559732 5.80374752668e-06 -5.59064658669e-05
150 2 19.695545868 12.880930306 13.40660736 0.0 0.0 0.0 8.6671331468e-05 -4.65003915647e-06 -4.56472569728e-05
151 2 8.540331882 6.440464992 13.40660736 0.0 0.0 0.0 -4.40854814244e-05 7.48146424651e-05 -4.49694008205e-05
152 2 15.977141254 6.440464992 13.40660736 0.0 0.0 0.0 -3.38546160445e-05 -7.49649342311e-05 -5.11651080167e-05
153 1 5.321166141 0.766954845 6.788243965 0.0 0.0 0.0 0.144201957192 0.143317138113 0.0758572970476
154 1 12.767975512 0.766954845 6.788243965 0.0 0.0 0.0 -0.000302145929822 9.65857135853e-06 -2.69195843769e-05
155 1 9.049570755 7.207420159 6.788243965 0.0 0.0 0.0 -8.27404868509e-05 -9.39818532245e-05 -2.75703372494e-05
156 1 16.486380127 7.207420159 6.788243965 0.0 0.0 0.0 -7.17569477713e-05 0.000138838120771 -2.28334670693e-05
157 1 5.331166184 0.766954838 13.725094105 0.0 0.0 0.0 3.62688334949e-05 1.95843490166e-05 -2.70084501551e-05
158 1 12.767975556 0.766954838 13.725094105 0.0 0.0 0.0 -0.00013095894797 1.55416351965e-05 -2.30427351489e-05
159 1 9.049570798 7.207420151 13.725094105 0.0 0.0 0.0 -6.57265705751e-05 -2.05468458766e-05 -2.27782865546e-05
160 1 16.48638017 7.207420151 13.725094105 0.0 0.0 0.0 -6.17696924558e-05 5.5243888456e-05 -2.51545650132e-05
161 1 16.486380702 5.673510068 6.788243516 0.0 0.0 0.0 -0.000121028740881 0.000170726895853 -2.26449063152e-05
162 1 9.04957133 5.673510068 6.788243516 0.0 0.0 0.0 -0.0001214446369 -0.000204723503091 -2.26368602366e-05
163 1 20.204785316 12.113975382 6.788243516 0.0 0.0 0.0 -0.000247784403461 -1.75626846386e-05 -2.43646312717e-05
164 1 12.767975944 12.113975382 6.788243516 0.0 0.0 0.0 0.0183328532493 0.0165859387782 0.0104302506639
165 1 16.486380745 5.673510061 13.725093655 0.0 0.0 0.0 -6.56979991114e-05 2.09775119875e-05 -2.14094552884e-05
166 1 9.049571373 5.673510061 13.725093655 0.0 0.0 0.0 -6.5861964372e-05 -5.53784706069e-05 -2.14096913919e-05
167 1 20.204785359 12.113975375 13.725093655 0.0 0.0 0.0 -0.000119776873258 -1.72692457764e-05 -2.04757210361e-05
168 1 12.767975987 12.113975375 13.725093655 0.0 0.0 0.0 1.78210537918e-05 -1.71151446599e-05 -2.44419616071e-05
169 2 12.462655523 4.175912014 6.46975888 0.0 0.0 0.0 0.000284511179339 7.63020331678e-06 -5.57506655309e-05
170 2 5.025846151 4.175912014 6.46975888 0.0 0.0 0.0 -0.00106278805561 -0.000487592075133 -2.47455685965e-05
171 2 16.181060137 10.616377328 6.46975888 0.0 0.0 0.0 0.000329262461671 -0.000843388188126 -0.000136293779932
172 2 8.744250765 10.616377328 6.46975888 0.0 0.0 0.0 0.000318523795567 0.000385250087105 -3.64846481001e-07
173 2 12.462655566 4.175912007 13.406609019 0.0 0.0 0.0 0.00010613541189 -2.76451402229e-05 -5.30667874937e-05
174 2 5.025846194 4.175912007 13.406609019 0.0 0.0 0.0 -9.74547061138e-05 -5.95839635037e-05 -5.77929113409e-05
175 2 16.18106018 10.616377321 13.406609019 0.0 0.0 0.0 7.33004045131e-06 -0.000114818898626 -3.55841042464e-05
176 2 8.744250808 10.616377321 13.406609019 0.0 0.0 0.0 5.37701760629e-05 2.71546068141e-05 -7.10381057381e-05
177 1 4.107023344 4.233448053 6.788243333 0.0 0.0 0.0 0.000220031732404 0.000612943872014 -1.9864049502e-05
178 1 11.543832716 4.233448053 6.788243333 0.0 0.0 0.0 -0.00013596625041 -0.000147403226665 -2.04140293815e-05
179 1 7.825427958 10.673913367 6.788243333 0.0 0.0 0.0 -0.00013295182214 -0.000168830988693 -2.11747827092e-05
180 1 15.26223733 10.673913367 6.788243333 0.0 0.0 0.0 6.38492801575e-05 0.000539408094573 2.02750165888e-06
181 1 4.107023387 4.233448046 13.725093473 0.0 0.0 0.0 5.77339327088e-05 -3.37268128579e-05 -1.95878768061e-05
182 1 11.543832759 4.233448046 13.725093473 0.0 0.0 0.0 -2.5454902305e-05 -8.21629770284e-05 -2.01120951739e-05
183 1 7.825428001 10.67391336 13.725093473 0.0 0.0 0.0 -2.0838010097e-05 -8.67575676343e-05 -1.97003521071e-05
184 1 15.262237373 10.67391336 13.725093473 0.0 0.0 0.0 4.73620578489e-05 -2.91077503858e-05 -2.10314779217e-05
185 1 12.872237203 5.00040447 6.78824545 0.0 0.0 0.0 -3.91024064711e-05 -4.28321964426e-05 -3.0251729262e-05
186 1 5.435427832 5.00040447 6.78824545 0.0 0.0 0.0 0.000273059841985 -0.00015328043873 -2.29516708975e-05
187 1 16.590641818 11.440869783 6.78824545 0.0 0.0 0.0 -0.000360476470196 0.000336279861298 -2.54982122386e-05
188 1 9.153832446 11.440869783 6.78824545 0.0 0.0 0.0 -0.000240293038967 -0.000450731490245 -6.73589678349e-05
189 1 12.872237247 5.000404462 13.72509559 0.0 0.0 0.0 1.56126896993e-05 -4.87077643293e-05 -2.83450479749e-05
190 1 5.435427875 5.000404462 13.72509559 0.0 0.0 0.0 8.83163896665e-05 -5.34612257819e-05 -2.97409529862e-05
191 1 16.590641861 11.440869776 13.72509559 0.0 0.0 0.0 3.47775690499e-05 -2.06803874829e-05 -2.96709735892e-05
192 1 9.153832489 11.440869776 13.72509559 0.0 0.0 0.0 3.98825774608e-05 -8.14371909335e-05 -2.64099406523e-05
193 2 1.307441393 2.264553585 6.469759523 0.0 0.0 0.0 0.00117998521881 -0.000382805383214 6.33814062255e-05
194 2 8.744250764 2.264553585 6.469759523 0.0 0.0 0.0 0.00192133235255 0.00116644379504 -0.00028759379764
195 2 5.025846007 8.705018899 6.469759523 0.0 0.0 0.0 8.37640261915e-05 -4.30758810419e-06 -5.42124921648e-05
196 2 12.462655379 8.705018899 6.469759523 0.0 0.0 0.0 -0.00013949769325 0.000157115405137 -4.90122106072e-05
197 2 1.307441436 2.264553578 13.406609663 0.0 0.0 0.0 6.8869353125e-05 1.11867946019e-05 -7.91903524293e-05
198 2 8.744250808 2.264553578 13.406609663 0.0 0.0 0.0 7.91481223754e-06 7.80571764455e-05 -2.58097999954e-05
199 2 5.02584605 8.705018892 13.406609663 0.0 0.0 0.0 4.37545005195e-05 2.72413368513e-05 -5.40163206049e-05
200 2 12.462655422 8.705018892 13.406609663 0.0 0.0 0.0 -2.47234397006e-05 6.02619100897e-05 -5.59194794023e-05
201 1 1.717022388 1.440060952 6.788246651 0.0 0.0 0.0 -0.00109426774583 0.000152807908473 -5.8445036597e-05
202 1 9.15383176 1.440060952 6.788246651 0.0 0.0 0.0 -0.000865182198325 9.5192729935e-06 -5.78357881517e-05
203 1 5.435427002 7.880526266 6.788246651 0.0 0.0 0.0 6.00462761718e-05 4.45564563082e-05 -3.32627787477e-05
204 1 12.872236374 7.880526266 6.788246651 0.0 0.0 0.0 7.24314938328e-05 6.05850918872e-05 -3.09066731456e-05
205 1 1.717022431 1.440060945 13.725096791 0.0 0.0 0.0 3.90495235512e-05 5.4815008231e-05 -3.12781802632e-05
206 1 9.153831803 1.440060945 13.725096791 0.0 0.0 0.0 2.90298857157e-05 5.00639227893e-05 -3.11010045549e-05
207 1 5.435427045 7.880526258 13.725096791 0.0 0.0 0.0 4.83006983326e-05 4.99330565597e-05 -3.18448595629e-05
208 1 12.872236417 7.880526258 13.725096791 0.0 0.0 0.0 5.22796864474e-05 5.48860651396e-05 -3.26981775084e-05
209 1 15.262237079 2.207018097 6.788243067 0.0 0.0 0.0 -0.000288453333903 0.000123860352972 -5.2365500024e-06
210 1 7.825427708 2.207018097 6.788243067 0.0 0.0 0.0 -0.00177642564683 -0.00176042846713 -2.32623883073e-05
211 1 18.980641693 8.647483411 6.788243067 0.0 0.0 0.0 -3.03735310669e-05 0.000135606751372 -1.64033787826e-05
212 1 11.543832322 8.647483411 6.788243067 0.0 0.0 0.0 5.17593088461e-05 -7.19057915013e-05 -2.08020893121e-05
213 1 15.262237122 2.207018089 13.725093207 0.0 0.0 0.0 -3.98322310458e-05 7.09447168601e-05 -1.75419301864e-05
214 1 7.825427751 2.207018089 13.725093207 0.0 0.0 0.0 5.85466714285e-05 4.29381567615e-05 -1.54364611706e-05
215 1 18.980641736 8.647483403 13.725093207 0.0 0.0 0.0 -1.37202068085e-06 8.37228993368e-05 -1.65748407353e-05
216 1 11.543832365 8.647483403 13.725093207 0.0 0.0 0.0 2.68790003446e-05 3.24577102556e-05 -1.55100376213e-05
217 2 10.05169036 12.880930562 3.001331049 0.0 0.0 0.0 0.0001637572242 0.000180964653986 0.000452810591609
218 2 17.488499731 12.880930562 3.001331049 0.0 0.0 0.0 0.000290703606271 -8.79442374573e-05 -0.000321945398283
219 2 6.333285745 6.440465248 3.001331049 0.0 0.0 0.0 -2.78453214353e-05 5.51656634606e-05 -6.51705337384e-05
220 2 13.770095117 6.440465248 3.001331049 0.0 0.0 0.0 9.28620593412e-05 -3.50366296912e-05 -3.34921808564e-05
221 2 10.051690403 12.880930555 9.938181189 0.0 0.0 0.0 0.000322251957649 0.000263906543688 -0.000790709296528
222 2 17.488499774 12.880930555 9.938181189 0.0 0.0 0.0 0.00039626581541 -0.000111721256958 0.000292688437837
223 2 6.333285789 6.440465241 9.938181189 0.0 0.0 0.0 -4.08037646918e-05 6.88303896936e-05 -1.75210492362e-05
224 2 13.77009516 6.440465241 9.938181189 0.0 0.0 0.0 9.63322262772e-05 -4.29777023018e-05 -5.21068822229e-05
225 1 13.26085702 5.67351034 3.319819519 0.0 0.0 0.0 8.57427327848e-06 -1.14103133062e-05 -3.37579739701e-05
226 1 5.824047648 5.67351034 3.319819519 0.0 0.0 0.0 0.000156679586397 -3.53485397032e-05 -1.56702649035e-05
227 1 16.979261634 12.113975653 3.319819519 0.0 0.0 0.0 -3.94546573412e-05 8.9636215131e-05 0.000126941233884
228 1 9.542452262 12.113975653 3.319819519 0.0 0.0 0.0 -1.72992073672e-05 -0.000151053048132 -0.000187686823597
229 1 13.260857063 5.673510332 10.256669659 0.0 0.0 0.0 8.61119760507e-06 -1.14350683587e-05 -2.40371900477e-05
230 1 5.824047691 5.673510332 10.256669659 0.0 0.0 0.0 0.000156736701621 -3.53405887149e-05 -4.21309243931e-05
231 1 16.979261677 12.113975646 10.256669659 0.0 0.0 0.0 -3.94703066251e-05 8.96080136584e-05 -0.000184790226364
232 1 9.542452305 12.113975646 10.256669659 0.0 0.0 0.0 -1.72970229625e-05 -0.000151055245457 0.000129711954494
233 1 2.105642892 0.766955018 3.319818703 0.0 0.0 0.0 -9.04532500794e-05 1.54798672095e-06 -0.000321442467943
234 1 9.542452263 0.766955018 3.319818703 0.0 0.0 0.0 -9.94765616807e-05 2.19797458584e-05 0.000199004169815
235 1 5.824047506 7.207420332 3.319818703 0.0 0.0 0.0 7.02580479554e-05 1.10295752022e-05 -2.49355246261e-05
236 1 13.260856878 7.207420332 3.319818703 0.0 0.0 0.0 6.70911824706e-05 2.26506982708e-05 -2.54593940909e-05
237 1 2.105642935 0.766955011 10.256668843 0.0 0.0 0.0 -9.04520703521e-05 3.33722496815e-05 0.000271427648514
238 1 9.542452307 0.766955011 10.256668843 0.0 0.0 0.0 -9.95058047679e-05 1.29114621183e-05 -0.00024890028388
239 1 5.824047549 7.207420325 10.256668843 0.0 0.0 0.0 6.71493438868e-05 1.21821395142e-05 -2.43635307177e-05
240 1 13.260856921 7.207420325 10.256668843 0.0 0.0 0.0 7.02576164858e-05 2.37959456857e-05 -2.49381155939e-05
241 2 13.566178647 2.264553318 3.001331607 0.0 0.0 0.0 0.000220923865212 2.56274710748e-05 5.18469344222e-06
242 2 6.129369276 2.264553318 3.001331607 0.0 0.0 0.0 -0.000639693816136 0.000155911066101 -0.000450747152111
243 2 17.284583261 8.705018632 3.001331607 0.0 0.0 0.0 8.2664589179e-06 -9.10491301517e-05 -7.90189947906e-05
244 2 9.84777389 8.705018632 3.001331607 0.0 0.0 0.0 -1.85122126795e-05 0.000180695300519 -4.63184976324e-06
245 2 13.56617869 2.26455331 9.938181747 0.0 0.0 0.0 0.000267631913055 1.91033108413e-05 -0.000104232292517
246 2 6.129369319 2.26455331 9.938181747 0.0 0.0 0.0 -0.000909714078742 0.000311285724163 0.000654815380803
247 2 17.284583305 8.705018624 9.938181747 0.0 0.0 0.0 1.95961812159e-05 -0.000116178495337 -9.94679494363e-06
248 2 9.847773933 8.705018624 9.938181747 0.0 0.0 0.0 -1.58096455422e-05 0.000217113874814 -9.69827789297e-05
249 1 14.485000752 2.20701716 3.319818255 0.0 0.0 0.0 -0.000154104586161 8.87093827627e-05 -0.000101677555218
250 1 7.048191381 2.20701716 3.319818255 0.0 0.0 0.0 8.178596279e-05 -9.48149760973e-05 0.000400867269075
251 1 18.203405367 8.647482473 3.319818255 0.0 0.0 0.0 -4.1412805462e-05 0.000112148601351 -1.45668836289e-05
252 1 10.766595995 8.647482473 3.319818255 0.0 0.0 0.0 3.65024384973e-06 -6.15039015157e-06 -5.07804068284e-05
253 1 14.485000796 2.207017152 10.256668395 0.0 0.0 0.0 -0.000155334236276 9.24911397405e-05 5.23836431007e-05
254 1 7.048191424 2.207017152 10.256668395 0.0 0.0 0.0 2.80227068102e-05 -9.58094566318e-05 -0.000427527494317
255 1 18.20340541 8.647482466 10.256668395 0.0 0.0 0.0 -4.26931556984e-05 0.000110439304338 -3.67360843561e-05
256 1 10.766596038 8.647482466 10.256668395 0.0 0.0 0.0 8.72701985197e-06 -9.50888100015e-06 2.09920768093e-06
257 1 5.719786092 1.440061854 3.319818129 0.0 0.0 0.0 0.000532011631288 6.8739919115e-05 7.2335000089e-05
258 1 13.156595464 1.440061854 3.319818129 0.0 0.0 0.0 -0.000184821034306 4.03994768266e-05 -2.73028771492e-05
259 1 9.438190706 7.880527168 3.319818129 0.0 0.0 0.0 -5.64202142209e-05 -2.60735012501e-05 -2.47825133227e-05
260 1 16.875000078 7.880527168 3.319818129 0.0 0.0 0.0 -4.87179678535e-05 0.000118599184331 -2.1460097982e-05
261 1 5.719786135 1.440061847 10.256668269 0.0 0.0 0.0 0.000536728135343 7.14103226982e-05 -0.000111359031128
262 1 13.156595507 1.440061847 10.256668269 0.0 0.0 0.0 -0.000184569176307 4.02180244409e-05 -1.94030962603e-05
263 1 9.438190749 7.880527161 10.256668269 0.0 0.0 0.0 -5.67456654509e-05 -2.62561291839e-05 -2.16667438347e-05
264 1 16.875000121 7.880527161 10.256668269 0.0 0.0 0.0 -4.88611027483e-05 0.000118846323473 -2.51683997283e-05
265 2 2.410964342 4.175911908 3.001332195 0.0 0.0 0.0 -1.51632087824e-05 -0.000264323060653 0.000160798522564
266 2 9.847773713 4.175911908 3.001332195 0.0 0.0 0.0 9.8151053064e-05 0.000112307537219 -0.000177269444784
267 2 6.129368956 10.616377222 3.001332195 0.0 0.0 0.0 0.000131361346648 -4.69055731669e-06 -2.16641716022e-05
268 2 13.566178327 10.616377222 3.001332195 0.0 0.0 0.0 -0.000321562974522 -0.000140950777321 -0.000122374790267
269 2 2.410964385 4.175911901 9.938182334 0.0 0.0 0.0 2.32885801307e-06 -0.000342267631418 -0.000295390723464
270 2 9.847773757 4.175911901 9.938182334 0.0 0.0 0.0 0.000130656761762 0.000150058102303 9.73286810198e-05
271 2 6.129368999 10.616377215 9.938182334 0.0 0.0 0.0 0.000162046207171 4.35851492189e-06 -7.64616981956e-05
272 2 13.566178371 10.616377215 9.938182334 0.0 0.0 0.0 -0.00043615865721 -0.000229762843086 9.80528574276e-05