ITEM: TIMESTEP
0
ITEM: NUMBER OF ATOMS
288
ITEM: BOX BOUNDS xy xz yz xx yy zz
0.0 14.873618743 7.436809228
0.0 12.880930628 8.6e-08
0.0 13.87370028 -1.5e-08
ITEM: ATOMS id type x y z vx vy vz fx fy fz
1 2 2.338671397 1.12e-07 0.380392751 0.0 0.0 0.0 -0.000163917257007 4.97982082487e-07 -0.000869444787664
2 2 9.775480768 1.12e-07 0.380392751 0.0 0.0 0.0 0.000138596742466 4.98175950842e-07 -0.000373128707436
3 2 6.057076011 6.440465426 0.380392751 0.0 0.0 0.0 3.2269320441e-05 4.52306802753e-05 -0.000225587896226
4 2 13.493885382 6.440465426 0.380392751 0.0 0.0 0.0 3.22832233e-05 -4.4235897641e-05 -0.000225582728589
5 2 2.33867144 1.04e-07 7.317242891 0.0 0.0 0.0 0.0247747141048 4.97100016456e-07 0.000797744114798
6 2 9.775480812 1.04e-07 7.317242891 0.0 0.0 0.0 -0.000307384885243 5.03766510227e-07 0.00060933628593
7 2 6.057076054 6.440465418 7.317242891 0.0 0.0 0.0 1.91856416288e-05 -8.4122778725e-05 0.00030352342986
8 2 13.493885426 6.440465418 7.317242891 0.0 0.0 0.0 1.91408141202e-05 8.51251699349e-05 0.000303536470621
9 1 2.400632363 4.61e-07 1.351465958 0.0 0.0 0.0 0.000321523243673 -1.85070092532e-06 0.000541025011324
10 1 9.837441735 4.61e-07 1.351465958 0.0 0.0 0.0 -0.000104234009065 -1.85067676998e-06 0.00021503568784
11 1 6.119036977 6.440465774 1.351465958 0.0 0.0 0.0 3.69300122956e-05 -5.6771793189e-05 0.00013024305883
12 1 13.555846349 6.440465774 1.351465958 0.0 0.0 0.0 3.6924535161e-05 5.3075861257e-05 0.000130240842019
13 1 2.400632406 4.53e-07 8.288316098 0.0 0.0 0.0 -0.00206595040166 -1.84905138597e-06 0.000659315385656
14 1 9.837441778 4.53e-07 8.288316098 0.0 0.0 0.0 0.000378450707796 -1.84970188484e-06 -9.06508034216e-05
15 1 6.11903702 6.440465767 8.288316098 0.0 0.0 0.0 5.02450603156e-05 8.56641352977e-05 -4.37102102458e-05
16 1 13.555846392 6.440465767 8.288316098 0.0 0.0 0.0 5.02453861443e-05 -8.93643645143e-05 -4.37106176604e-05
17 1 10.701141082 12.880930558 0.072968506 0.0 0.0 0.0 8.45032699156e-05 4.34873807742e-07 0.000599639347116
18 1 18.137950453 12.880930558 0.072968506 0.0 0.0 0.0 5.60331218671e-05 4.34738140157e-07 0.000197041453275
19 1 6.982736468 6.440465244 0.072968506 0.0 0.0 0.0 6.06985624842e-05 -3.42593239833e-06 0.00018004425995
20 1 14.419545839 6.440465244 0.072968506 0.0 0.0 0.0 6.06961690361e-05 4.29571007953e-06 0.000180041481923
21 1 10.701141125 12.880930551 7.009818646 0.0 0.0 0.0 -0.00791920750941 4.33032835699e-07 -0.00866541679414
22 1 18.137950497 12.880930551 7.009818646 0.0 0.0 0.0 6.2064326431e-05 4.31836165443e-07 -0.000134242000101
23 1 6.982736511 6.440465237 7.009818646 0.0 0.0 0.0 6.37591736824e-05 8.2786573393e-06 -9.81281195831e-05
24 1 14.419545882 6.440465237 7.009818646 0.0 0.0 0.0 6.37974073407e-05 -7.41557301466e-06 -9.81386704919e-05
25 2 13.704282012 2.025348059 0.380394512 0.0 0.0 0.0 -5.4643924088e-05 4.71888092822e-05 -0.00023268142931
26 2 6.26747264 2.025348059 0.380394512 0.0 0.0 0.0 8.17757260747e-05 0.000194894824753 -0.000879915521203
27 2 17.422686626 8.465813373 0.380394512 0.0 0.0 0.0 2.25709201829e-05 2.56780027899e-06 -0.000232850612547
28 2 9.985877254 8.465813373 0.380394512 0.0 0.0 0.0 -6.89652675338e-05 -6.65677646053e-05 -0.000378668708659
29 2 13.704282055 2.025348052 7.317244652 0.0 0.0 0.0 6.32245315459e-05 -5.61475512814e-06 0.00029587079498
30 2 6.267472684 2.025348052 7.317244652 0.0 0.0 0.0 -0.0137262271201 -0.019981884634 0.000911668552943
31 2 17.422686669 8.465813365 7.317244652 0.0 0.0 0.0 -8.27465496616e-05 7.88483549884e-05 0.000296389251365
32 2 9.985877298 8.465813365 7.317244652 0.0 0.0 0.0 0.000152176248559 0.000315883264356 0.000597812790997
33 1 13.673300338 2.079010187 1.351467718 0.0 0.0 0.0 3.70476739854e-05 5.16285596698e-06 0.000125268254827
34 1 6.236490966 2.079010187 1.351467718 0.0 0.0 0.0 -0.000162206588082 -0.000211316556667 0.000565754118028
35 1 17.391704952 8.519475501 1.351467718 0.0 0.0 0.0 -5.58624081188e-05 5.64491514523e-05 0.000120864553911
36 1 9.95489558 8.519475501 1.351467718 0.0 0.0 0.0 5.1801052657e-05 0.000147006654065 0.00019575293249
37 1 13.673300381 2.07901018 8.288317858 0.0 0.0 0.0 -9.80463553277e-05 6.33760278691e-05 -5.23895554618e-05
38 1 6.236491009 2.07901018 8.288317858 0.0 0.0 0.0 0.00129791902235 0.00212383281045 0.000804674413921
39 1 17.391704995 8.519475493 8.288317858 0.0 0.0 0.0 4.98279156714e-05 -1.79528282112e-05 -4.80305223801e-05
40 1 9.954895623 8.519475493 8.288317858 0.0 0.0 0.0 -0.000159889985676 -0.000233480379912 -8.70972123991e-05
41 1 13.241451457 2.826992613 0.072968839 0.0 0.0 0.0 -3.01414367446e-05 5.82031433163e-05 0.000162279443532
42 1 5.804642085 2.826992613 0.072968839 0.0 0.0 0.0 -3.16513096601e-05 2.71496630207e-05 0.000409333585896
43 1 16.959856071 9.267457927 0.072968839 0.0 0.0 0.0 -4.54955168552e-05 7.17053867781e-05 0.000216632396804
44 1 9.523046699 9.267457927 0.072968839 0.0 0.0 0.0 -1.23272566021e-05 7.81341706861e-05 0.000286540822593
45 1 13.2414515 2.826992606 7.009818978 0.0 0.0 0.0 -3.09220626357e-05 6.34577199314e-05 -7.01548538729e-05
46 1 5.804642128 2.826992606 7.009818978 0.0 0.0 0.0 -0.000178579970847 0.000309334489093 -0.00146431347594
47 1 16.959856114 9.26745792 7.009818978 0.0 0.0 0.0 6.90036433185e-06 3.11106206913e-05 -0.000178377020343
48 1 9.523046743 9.26745792 7.009818978 0.0 0.0 0.0 -0.000110217592467 -2.38048639124e-05 -0.000401438417765
49 2 17.422687622 4.415117298 0.380394729 0.0 0.0 0.0 -6.9224916368e-05 6.62653771413e-05 -0.000377705245456
50 2 9.985878251 4.415117298 0.380394729 0.0 0.0 0.0 2.23099369039e-05 -2.87160296684e-06 -0.000231885749736
51 2 21.141092236 10.855582612 0.380394729 0.0 0.0 0.0 -5.48883013004e-05 -4.74769662797e-05 -0.000231712899777
52 2 13.704282865 10.855582612 0.380394729 0.0 0.0 0.0 8.15128700574e-05 -0.000195198626099 -0.000878948307908
53 2 17.422687665 4.415117291 7.317244869 0.0 0.0 0.0 0.000151936001838 -0.000316166047492 0.000598780559136
54 2 9.985878294 4.415117291 7.317244869 0.0 0.0 0.0 -8.30068565506e-05 -7.91595114528e-05 0.000297356299908
55 2 21.14109228 10.855582605 7.317244869 0.0 0.0 0.0 6.29426522191e-05 5.27068402589e-06 0.000296827233815
56 2 13.704282908 10.855582605 7.317244869 0.0 0.0 0.0 -0.0137264837104 0.01998155013 0.000912621494476
57 1 2.518088606 4.36145465 1.351467896 0.0 0.0 0.0 4.61981157301e-05 -0.000145063766716 0.000197035177083
58 1 9.954897977 4.36145465 1.351467896 0.0 0.0 0.0 -6.14616061468e-05 -5.45042757685e-05 0.000122145170191
59 1 6.23649322 10.801919964 1.351467896 0.0 0.0 0.0 3.14456194855e-05 -3.2204455556e-06 0.000126549873854
60 1 13.673302591 10.801919964 1.351467896 0.0 0.0 0.0 -0.0001678068863 0.000213260747977 0.000567033791832
61 1 2.518088649 4.361454643 8.288318036 0.0 0.0 0.0 -0.000165493635609 0.0002354240641 -8.58113245543e-05
62 1 9.95489802 4.361454643 8.288318036 0.0 0.0 0.0 4.42313514514e-05 1.9899956312e-05 -4.67470676578e-05
63 1 6.236493263 10.801919957 8.288318036 0.0 0.0 0.0 -0.000103642443409 -6.14280866176e-05 -5.11059710566e-05
64 1 13.673302635 10.801919957 8.288318036 0.0 0.0 0.0 0.00129231628014 -0.00212188365831 0.000805958513516
65 1 16.959856167 3.613473172 0.07296928 0.0 0.0 0.0 -1.00484909524e-05 -7.91215529479e-05 0.000286574133032
66 1 9.523046796 3.613473172 0.07296928 0.0 0.0 0.0 -4.32158526899e-05 -7.26917686643e-05 0.000216663983423
67 1 20.678260782 10.053938486 0.07296928 0.0 0.0 0.0 -2.78733436163e-05 -5.9204641446e-05 0.000162308203787
68 1 13.24145141 10.053938486 0.07296928 0.0 0.0 0.0 -2.93718195287e-05 -2.81363597732e-05 0.000409365774388
69 1 16.959856211 3.613473164 7.00981942 0.0 0.0 0.0 -0.000107953683922 2.27954493908e-05 -0.000401417719913
70 1 9.523046839 3.613473164 7.00981942 0.0 0.0 0.0 9.17651509749e-06 -3.21022802768e-05 -0.000178354340644
71 1 20.678260825 10.053938478 7.00981942 0.0 0.0 0.0 -2.86314271933e-05 -6.44203635496e-05 -7.01229979305e-05
72 1 13.241451453 10.053938478 7.00981942 0.0 0.0 0.0 -0.000176299977102 -0.000310317466499 -0.00146428511335
73 2 5.098138192 9.1e-08 3.848820961 0.0 0.0 0.0 0.00658750545576 -9.55703038181e-07 -0.0692296905566
74 2 12.534947564 9.1e-08 3.848820961 0.0 0.0 0.0 -3.01410742318e-05 -9.69839611509e-07 8.87721035261e-05
75 2 8.816542806 6.440465404 3.848820961 0.0 0.0 0.0 -3.05574355083e-05 -7.1473715959e-07 8.87621988368e-05
76 2 16.253352178 6.440465404 3.848820961 0.0 0.0 0.0 -3.05636066571e-05 -1.20212589261e-06 8.87695609254e-05
77 2 5.098138235 8.3e-08 10.785671101 0.0 0.0 0.0 -2.54570632648e-05 -9.65801207438e-07 -0.00253408657517
78 2 12.534947607 8.3e-08 10.785671101 0.0 0.0 0.0 -3.11420513802e-05 -9.65643864204e-07 -0.000110582401421
79 2 8.816542849 6.440465397 10.785671101 0.0 0.0 0.0 -3.07642891723e-05 -1.30368206326e-06 -0.000110596793812
80 2 16.253352221 6.440465397 10.785671101 0.0 0.0 0.0 -3.07708025209e-05 -6.26606158294e-07 -0.000110597999736
81 1 12.472986142 12.880930033 4.819894401 0.0 0.0 0.0 -0.00159685855168 1.95251564695e-06 0.0226720250594
82 1 19.909795513 12.880930033 4.819894401 0.0 0.0 0.0 -3.49734279183e-05 1.94569899574e-06 -8.53304386425e-05
83 1 8.754581528 6.440464719 4.819894401 0.0 0.0 0.0 -4.10600492399e-05 5.4516177054e-06 -8.52515659556e-05
84 1 16.191390899 6.440464719 4.819894401 0.0 0.0 0.0 -4.10552683955e-05 -1.56491853268e-06 -8.52536694598e-05
85 1 12.472986185 12.880930026 11.756744541 0.0 0.0 0.0 -2.48224717604e-05 1.94430117731e-06 0.000694796331787
86 1 19.909795557 12.880930026 11.756744541 0.0 0.0 0.0 -4.59945072893e-05 1.94431455422e-06 0.000136620570136
87 1 8.754581571 6.440464712 11.756744541 0.0 0.0 0.0 -4.21641571026e-05 -2.66344450803e-07 0.000136543242372
88 1 16.191390943 6.440464712 11.756744541 0.0 0.0 0.0 -4.2164322974e-05 4.15465202114e-06 0.000136543453839
89 1 4.172478132 1.2e-08 3.541396305 0.0 0.0 0.0 0.0014899085005 -2.67033359306e-07 0.00200972689072
90 1 11.609287504 1.2e-08 3.541396305 0.0 0.0 0.0 -0.000155024200488 -2.66289461245e-07 4.96452113506e-05
91 1 7.890882746 6.440465326 3.541396305 0.0 0.0 0.0 -7.48786323486e-05 -4.37222963536e-05 4.78552263358e-05
92 1 15.327692118 6.440465326 3.541396305 0.0 0.0 0.0 -7.48773046719e-05 4.31847305113e-05 4.78517893262e-05
93 1 4.172478175 5e-09 10.478246445 0.0 0.0 0.0 -0.000633356850964 -2.67917125247e-07 0.00162404995379
94 1 11.609287547 5e-09 10.478246445 0.0 0.0 0.0 9.70267629424e-06 -2.68058535924e-07 9.15076408457e-05
95 1 7.890882789 6.440465319 10.478246445 0.0 0.0 0.0 -5.95747944358e-05 3.76891972898e-05 8.49054184448e-05
96 1 15.327692161 6.440465319 10.478246445 0.0 0.0 0.0 -5.95726632453e-05 -3.82260122041e-05 8.49058940095e-05
97 2 12.324550744 4.415115375 3.848820709 0.0 0.0 0.0 1.33716778516e-05 -2.38451730608e-05 8.11751015428e-05
98 2 4.887741372 4.415115375 3.848820709 0.0 0.0 0.0 1.14394446555e-05 0.000874409963129 1.92675212684e-05
99 2 16.042955358 10.855580689 3.848820709 0.0 0.0 0.0 0.00079450010568 -0.000475603067361 1.83793300623e-05
100 2 8.606145986 10.855580689 3.848820709 0.0 0.0 0.0 -0.000761171172432 -0.000469585476054 2.1027728505e-05
101 2 12.324550787 4.415115367 10.785670849 0.0 0.0 0.0 1.27677339451e-05 -2.35823889718e-05 -7.77447755918e-05
102 2 4.887741415 4.415115367 10.785670849 0.0 0.0 0.0 1.39019525625e-05 -0.00052852182058 -0.000388982040473
103 2 16.042955401 10.855580681 10.785670849 0.0 0.0 0.0 -0.000425705308594 0.000229879345857 -0.000391135154813
104 2 8.606146029 10.855580681 10.785670849 0.0 0.0 0.0 0.000449550106185 0.000227598356674 -0.000387789340472
105 1 12.355530592 4.361455296 4.81989398 0.0 0.0 0.0 2.19043680056e-05 -3.18901418534e-05 -5.57975059603e-05
106 1 4.91872122 4.361455296 4.81989398 0.0 0.0 0.0 2.88865638772e-05 -0.000469796047113 -0.000257187264868
107 1 16.073935206 10.801920609 4.81989398 0.0 0.0 0.0 -0.00042054351945 0.000215503281605 -0.000271388427329
108 1 8.637125834 10.801920609 4.81989398 0.0 0.0 0.0 0.000434241303583 0.00019010863763 -0.000263397499779
109 1 12.355530635 4.361455288 11.75674412 0.0 0.0 0.0 2.37721140151e-05 -3.50372136946e-05 0.000119743552059
110 1 4.918721263 4.361455288 11.75674412 0.0 0.0 0.0 2.10546612754e-05 7.80671019055e-05 0.000268387575171
111 1 16.073935249 10.801920602 11.75674412 0.0 0.0 0.0 0.000129843204077 -9.32139352001e-05 0.000287936232583
112 1 8.637125877 10.801920602 11.75674412 0.0 0.0 0.0 -8.00070195588e-05 -8.87576796526e-05 0.000277266785713
113 1 12.787381758 3.613470486 3.541396271 0.0 0.0 0.0 4.82370597909e-05 -7.43418057251e-05 4.61829070725e-05
114 1 5.350572387 3.613470486 3.541396271 0.0 0.0 0.0 -6.20181285361e-05 -0.000731358845237 0.000303141350736
115 1 16.505786372 10.0539358 3.541396271 0.0 0.0 0.0 -0.000127877004137 6.95302427409e-05 8.02118626952e-05
116 1 9.068977001 10.0539358 3.541396271 0.0 0.0 0.0 0.000298952692203 0.000214531311164 0.000140947559129
117 1 12.787381802 3.613470479 10.478246411 0.0 0.0 0.0 1.22784324357e-05 -3.57542402448e-05 7.72353309513e-05
118 1 5.35057243 3.613470479 10.478246411 0.0 0.0 0.0 8.9767355099e-05 0.000413525201031 0.000371358296419
119 1 16.505786416 10.053935793 10.478246411 0.0 0.0 0.0 0.000187799116037 -0.000171303815115 0.000125183033792
120 1 9.068977044 10.053935793 10.478246411 0.0 0.0 0.0 -0.00019612879737 -0.000267099452315 0.000207180998165
121 2 16.042954883 2.025349614 3.848821218 0.0 0.0 0.0 -0.000760069965092 0.000470125403497 2.09404191368e-05
122 2 8.606145512 2.025349614 3.848821218 0.0 0.0 0.0 0.000795613891388 0.000476156040837 1.82835837107e-05
123 2 19.761359497 8.465814928 3.848821218 0.0 0.0 0.0 1.44897979562e-05 2.44077886185e-05 8.10863589958e-05
124 2 12.324550126 8.465814928 3.848821218 0.0 0.0 0.0 1.2540103588e-05 -0.000873868590256 1.91855253172e-05
125 2 16.042954927 2.025349607 10.785671358 0.0 0.0 0.0 0.000450648144428 -0.000227036818192 -0.000387870358677
126 2 8.606145555 2.025349607 10.785671358 0.0 0.0 0.0 -0.000424586716292 -0.000229299217742 -0.000391219035283
127 2 19.761359541 8.46581492 10.785671358 0.0 0.0 0.0 1.39020432302e-05 2.42010710119e-05 -7.7838631049e-05
128 2 12.324550169 8.46581492 10.785671358 0.0 0.0 0.0 1.50398651101e-05 0.000529147851436 -0.000389068740639
129 1 16.07393341 2.079010738 4.819894452 0.0 0.0 0.0 0.000439041309075 -0.00019310281368 -0.000263282709002
130 1 8.637124038 2.079010738 4.819894452 0.0 0.0 0.0 -0.000415740506023 -0.00021849761585 -0.000271272341501
131 1 19.792338024 8.519476052 4.819894452 0.0 0.0 0.0 2.67031446692e-05 2.88891878116e-05 -5.56842108702e-05
132 1 12.355528653 8.519476052 4.819894452 0.0 0.0 0.0 3.36863073701e-05 0.000466796140871 -0.000257074625634
133 1 16.073933453 2.079010731 11.756744592 0.0 0.0 0.0 -7.52049763438e-05 8.57588861359e-05 0.000277377862473
134 1 8.637124082 2.079010731 11.756744592 0.0 0.0 0.0 0.00013464205253 9.02132573772e-05 0.000288046439834
135 1 19.792338067 8.519476045 11.756744592 0.0 0.0 0.0 2.85717386206e-05 3.20326884764e-05 0.000119854355319
136 1 12.355528696 8.519476045 11.756744592 0.0 0.0 0.0 2.58514137832e-05 -8.10737207617e-05 0.000268496281235
137 1 1.632167798 2.826994038 3.541396624 0.0 0.0 0.0 0.000297082560523 -0.000212402094094 0.000141054862473
138 1 9.06897717 2.826994038 3.541396624 0.0 0.0 0.0 -0.000129757331016 -6.74148481199e-05 8.03257437927e-05
139 1 5.350572412 9.267459352 3.541396624 0.0 0.0 0.0 4.63565988432e-05 7.6455479028e-05 4.6291266402e-05
140 1 12.787381784 9.267459352 3.541396624 0.0 0.0 0.0 -6.38884250282e-05 0.000733488878247 0.000303244069281
141 1 1.632167841 2.826994031 10.478246764 0.0 0.0 0.0 -0.000198002078236 0.000269216097572 0.000207289183148
142 1 9.068977213 2.826994031 10.478246764 0.0 0.0 0.0 0.000185914636321 0.000173404341705 0.000125294677348
143 1 5.350572456 9.267459345 10.478246764 0.0 0.0 0.0 1.03787111339e-05 3.78252991058e-05 7.73551888006e-05
144 1 12.787381827 9.267459345 10.478246764 0.0 0.0 0.0 8.78662631344e-05 -0.000411455315475 0.000371475998499
145 2 12.258736453 12.880930313 6.459757221 0.0 0.0 0.0 0.179551077392 -5.56334391305e-07 0.207716796536
146 2 19.695545825 12.880930313 6.469757221 0.0 0.0 0.0 -4.45837481994e-05 -7.24745846526e-07 0.000247846494806
147 2 8.540331839 6.440464999 6.469757221 0.0 0.0 0.0 -4.45685014659e-05 -7.07234556544e-07 0.0002478546534
148 2 15.97714121 6.440464999 6.469757221 0.0 0.0 0.0 -4.45302367499e-05 -7.07183845562e-07 0.000247869193349
149 2 12.258736496 12.880930306 13.40660736 0.0 0.0 0.0 -4.46052836775e-05 -7.05248316248e-07 -0.00123617532676
150 2 19.695545868 12.880930306 13.40660736 0.0 0.0 0.0 -4.46104510798e-05 -7.01983565016e-07 -0.000293593865332
151 2 8.540331882 6.440464992 13.40660736 0.0 0.0 0.0 -4.46186482574e-05 -7.31585495839e-07 -0.00029360220638
152 2 15.977141254 6.440464992 13.40660736 0.0 0.0 0.0 -4.46240975791e-05 -7.28576964524e-07 -0.000293602120476
153 1 5.331166141 0.766954845 6.788243965 0.0 0.0 0.0 -0.0874233769098 -0.082578733738 -0.0777768161335
154 1 12.767975512 0.766954845 6.788243965 0.0 0.0 0.0 -6.67079648349e-05 1.92655485952e-05 -0.000172020553534
155 1 9.049570755 7.207420159 6.788243965 0.0 0.0 0.0 -6.83971529559e-05 5.17609317554e-06 -0.000195343205812
156 1 16.486380127 7.207420159 6.788243965 0.0 0.0 0.0 -5.58516208127e-05 1.18295602113e-05 -0.000175641869479
157 1 5.331166184 0.766954838 13.725094105 0.0 0.0 0.0 -6.9089181232e-05 8.16796175824e-07 0.000543361685844
158 1 12.767975556 0.766954838 13.725094105 0.0 0.0 0.0 -5.85269219815e-05 1.57804508732e-05 9.79339011072e-05
159 1 9.049570798 7.207420151 13.725094105 0.0 0.0 0.0 -5.78503681061e-05 2.27719830047e-05 0.000109798569542
160 1 16.48638017 7.207420151 13.725094105 0.0 0.0 0.0 -6.41419511439e-05 1.96319035792e-05 9.98212970669e-05
161 1 16.486380702 5.673510068 6.788243516 0.0 0.0 0.0 -6.85276119792e-05 -5.296728467e-06 -0.000192790701004
162 1 9.04957133 5.673510068 6.788243516 0.0 0.0 0.0 -5.5948777442e-05 -1.19752560064e-05 -0.000173072342251
163 1 20.204785316 12.113975382 6.788243516 0.0 0.0 0.0 -6.68329706477e-05 -1.93821027986e-05 -0.00016946562309
164 1 12.767975944 12.113975382 6.788243516 0.0 0.0 0.0 -0.0874234774225 0.0825784450996 -0.0777741467459
165 1 16.486380745 5.673510061 13.725093655 0.0 0.0 0.0 -5.79739842878e-05 -2.28880358276e-05 0.000112355767567
166 1 9.049571373 5.673510061 13.725093655 0.0 0.0 0.0 -6.42649230676e-05 -1.97470881226e-05 0.000102377804792
167 1 20.204785359 12.113975375 13.725093655 0.0 0.0 0.0 -5.86347045955e-05 -1.59224410397e-05 0.000100500925827
168 1 12.767975987 12.113975375 13.725093655 0.0 0.0 0.0 -6.9196844879e-05 -9.57522825359e-07 0.000545928144118
169 2 12.462655523 4.175912014 6.46975888 0.0 0.0 0.0 1.73687229913e-05 -4.11498197427e-05 0.000171676359845
170 2 5.025846151 4.175912014 6.46975888 0.0 0.0 0.0 1.73898754969e-05 -4.39376142488e-05 0.00101566422877
171 2 16.181060137 10.616377328 6.46975888 0.0 0.0 0.0 1.49074716268e-05 -3.97556168953e-05 0.00103107641679
172 2 8.744250765 10.616377328 6.46975888 0.0 0.0 0.0 1.98018192556e-05 -3.97902080912e-05 0.00101565263497
173 2 12.462655566 4.175912007 13.406609019 0.0 0.0 0.0 1.73845547844e-05 -4.12024403504e-05 -0.000255031488162
174 2 5.025846194 4.175912007 13.406609019 0.0 0.0 0.0 1.73827614371e-05 -4.06091106873e-05 -0.000546270455885
175 2 16.18106018 10.616377321 13.406609019 0.0 0.0 0.0 1.78975237353e-05 -4.14989351857e-05 -0.000548720206926
176 2 8.744250808 10.616377321 13.406609019 0.0 0.0 0.0 1.68718828181e-05 -4.14935575381e-05 -0.000546271033497
177 1 4.107023344 4.233448053 6.788243333 0.0 0.0 0.0 -1.03443479318e-05 6.02799821733e-05 -0.000539798447606
178 1 11.543832716 4.233448053 6.788243333 0.0 0.0 0.0 1.82452480489e-05 -5.99576411785e-05 -0.000139457485044
179 1 7.825427958 10.673913367 6.788243333 0.0 0.0 0.0 -4.15478457168e-05 -8.82958862402e-05 -0.000252587824813
180 1 15.26223733 10.673913367 6.788243333 0.0 0.0 0.0 0.000218431286857 -0.00021878576226 -0.0010755786774
181 1 4.107023387 4.233448046 13.725093473 0.0 0.0 0.0 1.94492732351e-05 -8.70286449594e-05 0.000224036098875
182 1 11.543832759 4.233448046 13.725093473 0.0 0.0 0.0 1.18654692611e-05 -6.20379108846e-05 8.42029563331e-05
183 1 7.825428001 10.67391336 13.725093473 0.0 0.0 0.0 3.21996662492e-05 -5.25611305008e-05 0.000148200466497
184 1 15.262237373 10.67391336 13.725093473 0.0 0.0 0.0 -1.06630374001e-05 -4.20480379067e-05 0.000311665329119
185 1 12.872237203 5.00040447 6.78824545 0.0 0.0 0.0 4.6097854828e-05 -5.40424245084e-05 -0.000147663490076
186 1 5.435427832 5.00040447 6.78824545 0.0 0.0 0.0 5.32690032637e-05 1.43440140729e-05 -0.000276793493647
187 1 16.590641818 11.440869783 6.78824545 0.0 0.0 0.0 0.000152595175462 -8.66605195318e-05 -0.000490750593473
188 1 9.153832446 11.440869783 6.78824545 0.0 0.0 0.0 -0.000205966823571 -0.000162743121529 -0.00115735666828
189 1 12.872237247 5.000404462 13.72509559 0.0 0.0 0.0 4.80286005276e-05 -4.83532412591e-05 7.49902320674e-05
190 1 5.435427875 5.000404462 13.72509559 0.0 0.0 0.0 4.54447250583e-05 -7.08099947867e-05 0.000144295288106
191 1 16.590641861 11.440869776 13.72509559 0.0 0.0 0.0 2.33406456979e-05 -4.22248983967e-05 0.000202296242502
192 1 9.153832489 11.440869776 13.72509559 0.0 0.0 0.0 7.64345278615e-05 -3.75721660224e-05 0.000311890590929
193 2 1.307441393 2.264553585 6.469759523 0.0 0.0 0.0 1.75559439874e-05 4.11568517781e-05 0.00101558781208
194 2 8.744250764 2.264553585 6.469759523 0.0 0.0 0.0 1.27219340087e-05 4.11169686139e-05 0.00103100161854
195 2 5.025846007 8.705018899 6.469759523 0.0 0.0 0.0 1.51299758673e-05 4.25500133081e-05 0.000171604877957
196 2 12.462655379 8.705018899 6.469759523 0.0 0.0 0.0 1.51384048188e-05 4.53441700481e-05 0.00101558773129
197 2 1.307441436 2.264553578 13.406609663 0.0 0.0 0.0 1.46331219985e-05 4.28745611064e-05 -0.000546354791589
198 2 8.744250808 2.264553578 13.406609663 0.0 0.0 0.0 1.5653358879e-05 4.28793788273e-05 -0.000548801828957
199 2 5.02584605 8.705018892 13.406609663 0.0 0.0 0.0 1.51594451188e-05 4.25485079645e-05 -0.000255103996646
200 2 12.462655422 8.705018892 13.406609663 0.0 0.0 0.0 1.51519096995e-05 4.19614496041e-05 -0.000546342746588
201 1 1.717022388 1.440060952 6.788246651 0.0 0.0 0.0 -0.000205465315722 0.000164551793124 -0.00116068137878
202 1 9.15383176 1.440060952 6.788246651 0.0 0.0 0.0 0.000153087292905 8.84828065265e-05 -0.000494082055715
203 1 5.435427002 7.880526266 6.788246651 0.0 0.0 0.0 4.66010175992e-05 5.58327934302e-05 -0.000150983248698
204 1 12.872236374 7.880526266 6.788246651 0.0 0.0 0.0 5.3783458686e-05 -1.25659665561e-05 -0.000280108898112
205 1 1.717022431 1.440060945 13.725096791 0.0 0.0 0.0 7.6943693451e-05 3.93691968336e-05 0.000308569886105
206 1 9.153831803 1.440060945 13.725096791 0.0 0.0 0.0 2.38496864829e-05 4.40217200677e-05 0.000198975768695
207 1 5.435427045 7.880526258 13.725096791 0.0 0.0 0.0 4.85257498404e-05 5.01806658037e-05 7.16586205096e-05
208 1 12.872236417 7.880526258 13.725096791 0.0 0.0 0.0 4.594032972e-05 7.26357798941e-05 0.000140964925899
209 1 15.262237079 2.207018097 6.788243067 0.0 0.0 0.0 -4.35902189e-05 8.64538699145e-05 -0.000248888467063
210 1 7.825427708 2.207018097 6.788243067 0.0 0.0 0.0 0.000216349816892 0.00021693839721 -0.00107186367267
211 1 18.980641693 8.647483411 6.788243067 0.0 0.0 0.0 1.62022447305e-05 5.81101251778e-05 -0.00013575557747
212 1 11.543832322 8.647483411 6.788243067 0.0 0.0 0.0 -1.23881780451e-05 -6.212470172e-05 -0.000536097583204
213 1 15.262237122 2.207018089 13.725093207 0.0 0.0 0.0 3.01457449574e-05 5.07188327111e-05 0.000151906347687
214 1 7.825427751 2.207018089 13.725093207 0.0 0.0 0.0 -1.27149592639e-05 4.02057351467e-05 0.000315369906016
215 1 18.980641736 8.647483403 13.725093207 0.0 0.0 0.0 9.81188144289e-06 6.01968103908e-05 8.7908431646e-05
216 1 11.543832365 8.647483403 13.725093207 0.0 0.0 0.0 1.73971676602e-05 8.51868055079e-05 0.000227740902076
217 2 10.05169036 12.880930562 3.001331049 0.0 0.0 0.0 -0.00157410534805 1.1846648502e-06 -0.0013957562955
218 2 17.488499731 12.880930562 3.001331049 0.0 0.0 0.0 0.000540538207758 1.20121096797e-06 -0.000181080948937
219 2 6.333285745 6.440465248 3.001331049 0.0 0.0 0.0 6.50687713538e-05 0.000163111800246 -7.41082244149e-05
220 2 13.770095117 6.440465248 3.001331049 0.0 0.0 0.0 6.50694451327e-05 -0.000160689433266 -7.41089982571e-05
221 2 10.051690403 12.880930555 9.938181189 0.0 0.0 0.0 0.00166394265257 1.17765514273e-06 -0.00139490436606
222 2 17.488499774 12.880930555 9.938181189 0.0 0.0 0.0 -0.00044104714148 1.18092799942e-06 -0.000183579445042
223 2 6.333285789 6.440465241 9.938181189 0.0 0.0 0.0 3.34856040155e-05 -0.000160544169394 -7.60408307198e-05
224 2 13.77009516 6.440465241 9.938181189 0.0 0.0 0.0 3.35239872072e-05 0.000162895923969 -7.60571764957e-05
225 1 13.26085702 5.67351034 3.319819519 0.0 0.0 0.0 7.00656556386e-05 1.31010307509e-05 -3.95952369415e-05
226 1 5.824047648 5.67351034 3.319819519 0.0 0.0 0.0 3.56630474731e-05 -0.000203953388182 -1.56542346049e-05
227 1 16.979261634 12.113975653 3.319819519 0.0 0.0 0.0 -0.000276232596057 5.65710284983e-05 3.68357489561e-05
228 1 9.542452262 12.113975653 3.319819519 0.0 0.0 0.0 0.000807974331064 0.000268043184399 0.000318440783985
229 1 13.260857063 5.673510332 10.256669659 0.0 0.0 0.0 5.26150693278e-05 -4.42675543071e-05 -4.3676182828e-06
230 1 5.824047691 5.673510332 10.256669659 0.0 0.0 0.0 8.4113847539e-05 0.000149660861833 3.50840049154e-05
231 1 16.979261677 12.113975646 10.256669659 0.0 0.0 0.0 0.000341643398963 -8.1648933831e-05 0.000106767401796
232 1 9.542452305 12.113975646 10.256669659 0.0 0.0 0.0 -0.000431480938948 -0.000234177861363 0.000350804918714
233 1 2.105642892 0.766955018 3.319818703 0.0 0.0 0.0 0.000807129667591 -0.000267997122476 0.000322420220933
234 1 9.542452263 0.766955018 3.319818703 0.0 0.0 0.0 -0.000277064026689 -5.65409039692e-05 4.0809250244e-05
235 1 5.824047506 7.207420332 3.319818703 0.0 0.0 0.0 6.92375028867e-05 -1.3081501189e-05 -3.56262822235e-05
236 1 13.260856878 7.207420332 3.319818703 0.0 0.0 0.0 3.48348283025e-05 0.000203972956556 -1.16854058121e-05
237 1 2.105642935 0.766955011 10.256668843 0.0 0.0 0.0 -0.000432326113245 0.000234226333628 0.000354785075654
238 1 9.542452307 0.766955011 10.256668843 0.0 0.0 0.0 0.000340798604516 8.16960146327e-05 0.000110746944628
239 1 5.824047549 7.207420325 10.256668843 0.0 0.0 0.0 5.17851012493e-05 4.43034693651e-05 -3.94848384303e-07
240 1 13.260856921 7.207420325 10.256668843 0.0 0.0 0.0 8.32511098115e-05 -0.000149599643143 3.90733037673e-05
241 2 13.566178647 2.264553318 3.001331607 0.0 0.0 0.0 -0.000170350754769 0.000107642279936 -7.7727049803e-05
242 2 6.129369276 2.264553318 3.001331607 0.0 0.0 0.0 0.000790551842224 0.00144961203845 -0.00141436745478
243 2 17.284583261 8.705018632 3.001331607 0.0 0.0 0.0 0.000108870622345 -5.35557304338e-05 -7.7708943128e-05
244 2 9.84777389 8.705018632 3.001331607 0.0 0.0 0.0 -0.000265291405547 -0.000379173085069 -0.000181823975426
245 2 13.56617869 2.26455331 9.938181747 0.0 0.0 0.0 0.000124648756481 -2.59637020696e-05 -7.96807126256e-05
246 2 6.129369319 2.26455331 9.938181747 0.0 0.0 0.0 -0.000832011960367 -0.0013608455891 -0.00141410526935
247 2 17.284583305 8.705018624 9.938181747 0.0 0.0 0.0 -0.000154275730134 0.000135032688173 -7.96904701112e-05
248 2 9.847773933 8.705018624 9.938181747 0.0 0.0 0.0 0.000219226938506 0.000459951374415 -0.0001843309886
249 1 14.485000752 2.20701716 3.319818255 0.0 0.0 0.0 0.000150742171375 -1.10893929509e-05 -1.41220171389e-05
250 1 7.048191381 2.20701716 3.319818255 0.0 0.0 0.0 -0.000586001854221 -0.000435456361865 0.000271444250749
251 1 18.203405367 8.647482473 3.319818255 0.0 0.0 0.0 -5.1191409996e-05 7.31696634934e-05 -3.60371495417e-05
252 1 10.766595995 8.647482473 3.319818255 0.0 0.0 0.0 0.00010431208843 0.000416125402082 5.32627470828e-05
253 1 14.485000796 2.207017152 10.256668395 0.0 0.0 0.0 -0.000165053655811 0.000125673371237 3.58125488869e-05
254 1 7.048191424 2.207017152 10.256668395 0.0 0.0 0.0 0.000384454735221 0.000377965524693 0.000312232063251
255 1 18.20340541 8.647482466 10.256668395 0.0 0.0 0.0 1.60853389387e-05 5.06951375315e-05 -4.75308547489e-07
256 1 10.766596038 8.647482466 10.256668395 0.0 0.0 0.0 -0.000112843343017 -0.000234318414057 0.000124905181501
257 1 5.719786092 1.440061854 3.319818129 0.0 0.0 0.0 -0.000634325485751 -0.00110561911665 0.0017458358214
258 1 13.156595464 1.440061854 3.319818129 0.0 0.0 0.0 -8.61785438358e-08 2.69627863722e-05 -3.04752596234e-05
259 1 9.438190706 7.880527168 3.319818129 0.0 0.0 0.0 1.01280778221e-05 0.00013348873435 -3.2568661394e-05
260 1 16.875000078 7.880527168 3.319818129 0.0 0.0 0.0 -8.82808283549e-05 8.45114125324e-05 -2.93456002878e-05
261 1 5.719786135 1.440061847 10.256668269 0.0 0.0 0.0 0.000284449945462 0.000697213662311 0.00134475681019
262 1 13.156595507 1.440061847 10.256668269 0.0 0.0 0.0 -8.3585809877e-05 6.00057401347e-05 9.11076184594e-06
263 1 9.438190749 7.880527161 10.256668269 0.0 0.0 0.0 -8.98084623713e-05 -2.95106160306e-05 1.78644969513e-05
264 1 16.875000121 7.880527161 10.256668269 0.0 0.0 0.0 -5.101756766e-06 8.56694706946e-06 1.11186929149e-05
265 2 2.410964342 4.175911908 3.001332195 0.0 0.0 0.0 -0.000263533452422 0.000377868167554 -0.000182711602198
266 2 9.847773713 4.175911908 3.001332195 0.0 0.0 0.0 0.000110621628626 5.22628458e-05 -7.85901004975e-05
267 2 6.129368956 10.616377222 3.001332195 0.0 0.0 0.0 -0.000168569924485 -0.000108921403078 -7.85889071611e-05
268 2 13.566178327 10.616377222 3.001332195 0.0 0.0 0.0 0.000792352219795 -0.00145089917216 -0.00141523419368
269 2 2.410964385 4.175911901 9.938182334 0.0 0.0 0.0 0.000221022927246 -0.000461207643792 -0.000185177009452
270 2 9.847773757 4.175911901 9.938182334 0.0 0.0 0.0 -0.00015253145361 -0.000136281357501 -8.05436970731e-05
271 2 6.129368999 10.616377215 9.938182334 0.0 0.0 0.0 0.000126398398443 2.46777747152e-05 -8.0546815616e-05
272 2 13.566178371 10.616377215 9.938182334 0.0 0.0 0.0 -0.000830254003096 0.00135956031702 -0.00141496857102
273 1 16.875000507 5.000403535 3.319819181 0.0 0.0 0.0 9.9607007002e-06 -0.000135220959758 -3.56782562627e-05