ITEM: TIMESTEP
0
ITEM: NUMBER OF ATOMS
288
ITEM: BOX BOUNDS xy xz yz xx yy zz
0.0 14.873618743 7.436809228
0.0 12.880930628 8.6e-08
0.0 13.87370028 -1.5e-08
ITEM: ATOMS id type x y z vx vy vz fx fy fz
1 2 2.338671397 1.12e-07 0.380392751 0.0 0.0 0.0 -0.069855298895 5.32128737074e-07 0.0877421990202
2 2 9.775480768 1.12e-07 0.380392751 0.0 0.0 0.0 7.07746864464e-06 4.98164556546e-07 0.000179037947675
3 2 6.057076011 6.440465426 0.380392751 0.0 0.0 0.0 2.63807517072e-05 -9.73910485336e-06 0.00016082040672
4 2 13.493885382 6.440465426 0.380392751 0.0 0.0 0.0 2.63946373671e-05 1.0733922893e-05 0.000160825620171
5 2 2.33867144 1.04e-07 7.317242891 0.0 0.0 0.0 2.1776556669e-09 5.0124629794e-07 -0.000564362218664
6 2 9.775480812 1.04e-07 7.317242891 0.0 0.0 0.0 3.91039639536e-05 5.03795978265e-07 -0.000114402464847
7 2 6.057076054 6.440465418 7.317242891 0.0 0.0 0.0 2.95328418389e-05 5.83590013301e-06 -0.000104918594304
8 2 13.493885426 6.440465418 7.317242891 0.0 0.0 0.0 2.94880389533e-05 -4.83357473104e-06 -0.000104905624182
9 1 2.400632363 4.61e-07 1.351465958 0.0 0.0 0.0 -0.0378262599023 -1.84550660805e-06 0.00216144235632
10 1 9.837441735 4.61e-07 1.351465958 0.0 0.0 0.0 8.43279708856e-05 -1.85064615701e-06 -1.9352403392e-05
11 1 6.119036977 6.440465774 1.351465958 0.0 0.0 0.0 4.5623439467e-05 1.83750769469e-05 -1.20016849076e-05
12 1 13.555846349 6.440465774 1.351465958 0.0 0.0 0.0 4.56180079757e-05 -2.20711076979e-05 -1.2003955727e-05
13 1 2.400632406 4.53e-07 8.288316098 0.0 0.0 0.0 0.00011519068296 -1.84979541294e-06 0.000404144598783
14 1 9.837441778 4.53e-07 8.288316098 0.0 0.0 0.0 1.82386368263e-05 -1.84976236309e-06 9.44172000282e-05
15 1 6.11903702 6.440465767 8.288316098 0.0 0.0 0.0 3.95104314503e-05 -1.35670236911e-05 8.84465520962e-05
16 1 13.555846392 6.440465767 8.288316098 0.0 0.0 0.0 3.95107067676e-05 9.8669342615e-06 8.84461891941e-05
17 1 10.701141082 12.880930558 0.082968506 0.0 0.0 0.0 0.0993197254805 3.91200476832e-07 -0.0920590084155
18 1 18.137950453 12.880930558 0.072968506 0.0 0.0 0.0 5.3189198264e-05 4.34737121302e-07 -1.19036813411e-05
19 1 6.982736468 6.440465244 0.072968506 0.0 0.0 0.0 6.06544849133e-05 -3.51966456287e-06 -1.8883924114e-05
20 1 14.419545839 6.440465244 0.072968506 0.0 0.0 0.0 6.06520906893e-05 4.38944514663e-06 -1.88866956977e-05
21 1 10.701141125 12.880930551 7.009818646 0.0 0.0 0.0 5.03110221918e-05 4.3211364739e-07 0.00035857875133
22 1 18.137950497 12.880930551 7.009818646 0.0 0.0 0.0 6.54211006074e-05 4.31839385423e-07 0.000112701397367
23 1 6.982736511 6.440465237 7.009818646 0.0 0.0 0.0 6.17245346642e-05 2.49314772202e-06 0.000116339269078
24 1 14.419545882 6.440465237 7.009818646 0.0 0.0 0.0 6.1762767505e-05 -1.63006648318e-06 0.000116328717275
25 2 13.704282012 2.025348059 0.380394512 0.0 0.0 0.0 8.78168168512e-05 -2.07903376686e-05 0.000253807070034
26 2 6.26747264 2.025348059 0.380394512 0.0 0.0 0.0 -0.00035211957082 -0.000218663959389 0.000998051773858
27 2 17.422686626 8.465813373 0.380394512 0.0 0.0 0.0 -2.01655462335e-05 2.9537824278e-05 0.000123159710152
28 2 9.985877254 8.465813373 0.380394512 0.0 0.0 0.0 2.10528863092e-05 0.000222937755459 0.000483416227766
29 2 13.704282055 2.025348052 7.317244652 0.0 0.0 0.0 -4.59400811326e-05 4.34376893123e-05 -0.000165595111918
30 2 6.267472684 2.025348052 7.317244652 0.0 0.0 0.0 2.88819599549e-05 5.96783089491e-05 -0.000320383762344
31 2 17.422686669 8.465813365 7.317244652 0.0 0.0 0.0 -1.06421018429e-05 2.73971152506e-05 -9.27336796811e-05
32 2 9.985877298 8.465813365 7.317244652 0.0 0.0 0.0 -2.20224768592e-05 -1.50584916354e-05 -0.000228595781153
33 1 13.673300338 2.079010187 1.351467718 0.0 0.0 0.0 -0.000123794889779 7.16643752909e-05 -3.37742196066e-05
34 1 6.236490966 2.079010187 1.351467718 0.0 0.0 0.0 0.000439938175783 0.000354492501494 -0.000132380773291
35 1 17.391704952 8.519475501 1.351467718 0.0 0.0 0.0 -4.32773365479e-06 2.65908946061e-05 -9.18479410278e-06
36 1 9.95489558 8.519475501 1.351467718 0.0 0.0 0.0 -6.64913486173e-05 -0.00019874526197 -7.06011660891e-05
37 1 13.673300381 2.07901018 8.288317858 0.0 0.0 0.0 3.67551411084e-05 5.75634908514e-06 0.000112163621821
38 1 6.236491009 2.07901018 8.288317858 0.0 0.0 0.0 -9.33362787888e-05 -2.92434476526e-05 0.000201895042853
39 1 17.391704995 8.519475493 8.288317858 0.0 0.0 0.0 -2.11373385739e-05 2.90629849072e-05 7.23495301228e-05
40 1 9.954895623 8.519475493 8.288317858 0.0 0.0 0.0 8.4218705964e-07 9.94507180385e-05 0.000141727553162
41 1 13.241451457 2.826992613 0.072968839 0.0 0.0 0.0 -2.88374363203e-05 6.31345648639e-05 -3.31850981515e-05
42 1 5.804642085 2.826992613 0.072968839 0.0 0.0 0.0 -6.83159104531e-05 3.55777494028e-05 -0.000386582124694
43 1 16.959856071 9.267457927 0.072968839 0.0 0.0 0.0 -3.12049548453e-05 5.98592387014e-05 -1.63090771079e-05
44 1 9.523046699 9.267457927 0.072968839 0.0 0.0 0.0 -3.17251966365e-05 1.98838714808e-05 -0.000386803718606
45 1 13.2414515 2.826992606 7.009818978 0.0 0.0 0.0 -3.13263775494e-05 5.94601389763e-05 0.000120714359838
46 1 5.804642128 2.826992606 7.009818978 0.0 0.0 0.0 -2.86489625128e-05 6.11130164092e-05 0.000204958430652
47 1 16.959856114 9.26745792 7.009818978 0.0 0.0 0.0 -3.04142405037e-05 6.05805605563e-05 0.000113089259542
48 1 9.523046743 9.26745792 7.009818978 0.0 0.0 0.0 -3.12048890724e-05 6.18481131932e-05 0.000204954264714
49 2 17.422687622 4.415117298 0.380394729 0.0 0.0 0.0 2.0793210122e-05 -0.000223240266887 0.000484379601974
50 2 9.985878251 4.415117298 0.380394729 0.0 0.0 0.0 -2.04265099293e-05 -2.98415998593e-05 0.000124124492844
51 2 21.141092236 10.855582612 0.380394729 0.0 0.0 0.0 8.75726092038e-05 2.05022529687e-05 0.00025477580074
52 2 13.704282865 10.855582612 0.380394729 0.0 0.0 0.0 -0.000352382471191 0.000218360017001 0.000999018321765
53 2 17.422687665 4.415117291 7.317244869 0.0 0.0 0.0 -2.22626880937e-05 1.47758230058e-05 -0.000227627930348
54 2 9.985878294 4.415117291 7.317244869 0.0 0.0 0.0 -1.09024540329e-05 -2.77083258326e-05 -9.1766508187e-05
55 2 21.14109228 10.855582605 7.317244869 0.0 0.0 0.0 -4.62221015628e-05 -4.37818060555e-05 -0.000164638828988
56 2 13.704282908 10.855582605 7.317244869 0.0 0.0 0.0 2.86304330639e-05 -5.9999873801e-05 -0.000319428098899
57 1 2.518088606 4.36145465 1.351467896 0.0 0.0 0.0 -7.20941996344e-05 0.000200688484803 -6.93190785934e-05
58 1 9.954897977 4.36145465 1.351467896 0.0 0.0 0.0 -9.92699455898e-06 -2.4646090946e-05 -7.90410647953e-06
59 1 6.23649322 10.801919964 1.351467896 0.0 0.0 0.0 -0.000129397227043 -6.97220966859e-05 -3.24927256459e-05
60 1 13.673302591 10.801919964 1.351467896 0.0 0.0 0.0 0.00043433707894 -0.000352547318909 -0.000131100460305
61 1 2.518088649 4.361454643 8.288318036 0.0 0.0 0.0 -4.76143206823e-06 -9.75074122518e-05 0.000143013556206
62 1 9.95489802 4.361454643 8.288318036 0.0 0.0 0.0 -2.67338121204e-05 -2.71157449989e-05 7.36329204437e-05
63 1 6.236493263 10.801919957 8.288318036 0.0 0.0 0.0 3.11593168877e-05 -3.80830312258e-06 0.000113447330384
64 1 13.673302635 10.801919957 8.288318036 0.0 0.0 0.0 -9.89389318288e-05 3.11875004062e-05 0.000203180460261
65 1 16.959856167 3.613473172 0.07296928 0.0 0.0 0.0 -2.94465269726e-05 -2.0871081464e-05 -0.000386769981313
66 1 9.523046796 3.613473172 0.07296928 0.0 0.0 0.0 -2.89252664555e-05 -6.08455987818e-05 -1.62774599003e-05
67 1 20.678260782 10.053938486 0.07296928 0.0 0.0 0.0 -2.65693494839e-05 -6.413607083e-05 -3.31563442088e-05
68 1 13.24145141 10.053938486 0.07296928 0.0 0.0 0.0 -6.6036245152e-05 -3.65647207031e-05 -0.000386550386022
69 1 16.959856211 3.613473164 7.00981942 0.0 0.0 0.0 -2.89409690342e-05 -6.28575653363e-05 0.000204974552875
70 1 9.523046839 3.613473164 7.00981942 0.0 0.0 0.0 -2.81381227242e-05 -6.15722591114e-05 0.000113111870676
71 1 20.678260825 10.053938478 7.00981942 0.0 0.0 0.0 -2.90357339858e-05 -6.0422774077e-05 0.00012074621506
72 1 13.241451453 10.053938478 7.00981942 0.0 0.0 0.0 -2.63694342785e-05 -6.20936505765e-05 0.000204988586853
73 2 5.098138192 9.1e-08 3.848820961 0.0 0.0 0.0 -0.000629552705724 -9.67104226841e-07 -0.00119234357059
74 2 12.534947564 9.1e-08 3.848820961 0.0 0.0 0.0 5.70535879248e-05 -9.69852641086e-07 -5.30036044298e-05
75 2 8.816542806 6.440465404 3.848820961 0.0 0.0 0.0 -2.24143452953e-05 4.58707899211e-05 -3.93772435739e-05
76 2 16.253352178 6.440465404 3.848820961 0.0 0.0 0.0 -2.242056415e-05 -4.77875771734e-05 -3.93698743404e-05
77 2 5.098138235 8.3e-08 10.785671101 0.0 0.0 0.0 0.00151870167211 -9.65506333889e-07 -0.00180072792755
78 2 12.534947607 8.3e-08 10.785671101 0.0 0.0 0.0 -0.000150705419265 -9.65631805405e-07 3.35757585314e-05
79 2 8.816542849 6.440465397 10.785671101 0.0 0.0 0.0 -4.10862050672e-05 -5.77645031853e-05 2.77768150924e-05
80 2 16.253352221 6.440465397 10.785671101 0.0 0.0 0.0 -4.10926801782e-05 5.58341514538e-05 2.77756070741e-05
81 1 12.472986142 12.880930033 4.819894401 0.0 0.0 0.0 3.26002991047e-05 1.94551874745e-06 0.0003491959336
82 1 19.909795513 12.880930033 4.819894401 0.0 0.0 0.0 -7.07745123439e-05 1.94568865714e-06 9.02790855259e-05
83 1 8.754581528 6.440464719 4.819894401 0.0 0.0 0.0 -4.4244903144e-05 -1.34871318779e-05 8.06998379096e-05
84 1 16.191390899 6.440464719 4.819894401 0.0 0.0 0.0 -4.42401768583e-05 1.73739066789e-05 8.06977407995e-05
85 1 12.472986185 12.880930026 11.756744541 0.0 0.0 0.0 -0.00226647685615 1.94515615577e-06 0.00122928643759
86 1 19.909795557 12.880930026 11.756744541 0.0 0.0 0.0 1.45804256172e-05 1.94432470969e-06 -3.85840526005e-05
87 1 8.754581571 6.440464712 11.756744541 0.0 0.0 0.0 -3.64151650513e-05 2.88682780599e-05 -2.20709247364e-05
88 1 16.191390943 6.440464712 11.756744541 0.0 0.0 0.0 -3.64152809388e-05 -2.49800425308e-05 -2.20707179418e-05
89 1 4.172478132 1.2e-08 3.541396305 0.0 0.0 0.0 0.000162970765265 -2.66689121168e-07 0.00128835217415
90 1 11.609287504 1.2e-08 3.541396305 0.0 0.0 0.0 -7.58597063959e-05 -2.66282112082e-07 5.84109966204e-05
91 1 7.890882746 6.440465326 3.541396305 0.0 0.0 0.0 -6.83180082527e-05 -7.26684518922e-06 5.96182597897e-05
92 1 15.327692118 6.440465326 3.541396305 0.0 0.0 0.0 -6.83166495075e-05 6.72923532308e-06 5.9614820793e-05
93 1 4.172478175 5e-09 10.478246445 0.0 0.0 0.0 -0.000290983212352 -2.68146186184e-07 0.0012771753093
94 1 11.609287547 5e-09 10.478246445 0.0 0.0 0.0 -5.70433630009e-05 -2.68065036335e-07 5.88831989572e-05
95 1 7.890882789 6.440465319 10.478246445 0.0 0.0 0.0 -6.45605220746e-05 6.70551728047e-06 6.00882072072e-05
96 1 15.327692161 6.440465319 10.478246445 0.0 0.0 0.0 -6.45584190543e-05 -7.2422931143e-06 6.00886769727e-05
97 2 12.324550744 4.415115375 3.848820709 0.0 0.0 0.0 4.32167450535e-05 -3.27892019318e-05 -2.64447133477e-05
98 2 4.887741372 4.415115375 3.848820709 0.0 0.0 0.0 -7.21118478658e-05 -0.000281427980761 -0.000148478314926
99 2 16.042955358 10.855580689 3.848820709 0.0 0.0 0.0 -0.000126010461969 3.44635212099e-05 -6.47996777665e-05
100 2 8.606145986 10.855580689 3.848820709 0.0 0.0 0.0 0.00037658552041 0.000253919579846 -0.000370197599159
101 2 12.324550787 4.415115367 10.785670849 0.0 0.0 0.0 -2.29665793411e-05 -1.12074097867e-05 3.33348024271e-05
102 2 4.887741415 4.415115367 10.785670849 0.0 0.0 0.0 0.00013466404216 0.000326693785689 -2.94619456561e-05
103 2 16.042955401 10.855580681 10.785670849 0.0 0.0 0.0 0.000180266130788 -9.32740925342e-05 1.83506628046e-05
104 2 8.606146029 10.855580681 10.785670849 0.0 0.0 0.0 -0.000659043607158 -0.000627877878072 -0.00031342255325
105 1 12.355530592 4.361455296 4.81989398 0.0 0.0 0.0 1.44835766538e-05 -3.23922314591e-05 7.67256512893e-05
106 1 4.91872122 4.361455296 4.81989398 0.0 0.0 0.0 4.19758308874e-05 3.15549095172e-05 0.000142593461185
107 1 16.073935206 10.801920609 4.81989398 0.0 0.0 0.0 6.74182883087e-05 -5.17204602255e-05 0.000106913130042
108 1 8.637125834 10.801920609 4.81989398 0.0 0.0 0.0 -5.51608683218e-05 -9.10667715582e-05 0.000223993512374
109 1 12.355530635 4.361455288 11.75674412 0.0 0.0 0.0 3.6226439899e-05 -3.67690350168e-05 -1.01908218893e-05
110 1 4.918721263 4.361455288 11.75674412 0.0 0.0 0.0 -3.92122356627e-05 -0.000225231239635 -5.95818312675e-05
111 1 16.073935249 10.801920602 11.75674412 0.0 0.0 0.0 -6.57519218247e-05 1.77257725522e-06 -3.27394896354e-05
112 1 8.637125877 10.801920602 11.75674412 0.0 0.0 0.0 0.00059015885172 0.000419325234174 -7.01210353332e-05
113 1 12.787381758 3.613470486 3.541396271 0.0 0.0 0.0 -7.49562806903e-06 -3.33063427321e-05 6.42286352505e-05
114 1 5.350572387 3.613470486 3.541396271 0.0 0.0 0.0 0.000142408544303 0.000147518512007 0.000152556129959
115 1 16.505786372 10.0539358 3.541396271 0.0 0.0 0.0 7.00291064238e-05 -7.71350742646e-05 5.96992006474e-05
116 1 9.068977001 10.0539358 3.541396271 0.0 0.0 0.0 -0.000126800028415 -0.000284253311309 0.000200808634425
117 1 12.787381802 3.613470479 10.478246411 0.0 0.0 0.0 6.9512153524e-05 -7.78569343103e-05 6.01932000908e-05
118 1 5.35057243 3.613470479 10.478246411 0.0 0.0 0.0 -8.82168298071e-05 -0.000251957363341 0.00015341186292
119 1 16.505786416 10.053935793 10.478246411 0.0 0.0 0.0 -7.04353038307e-06 -3.27219459042e-05 6.47009311837e-05
120 1 9.068977044 10.053935793 10.478246411 0.0 0.0 0.0 0.000149650271079 0.000194443779975 0.000201512904575
121 2 16.042954883 2.025349614 3.848821218 0.0 0.0 0.0 0.000377686234335 -0.000253379262949 -0.000370285010937
122 2 8.606145512 2.025349614 3.848821218 0.0 0.0 0.0 -0.000124896939444 -3.39108403236e-05 -6.48956148641e-05
123 2 19.761359497 8.465814928 3.848821218 0.0 0.0 0.0 4.43348282466e-05 3.33518233846e-05 -2.65335215106e-05
124 2 12.324550126 8.465814928 3.848821218 0.0 0.0 0.0 -7.10110423771e-05 0.000281969606708 -0.000148560512107
125 2 16.042954927 2.025349607 10.785671358 0.0 0.0 0.0 -0.000657945385475 0.000628439127401 -0.000313503295023
126 2 8.606145555 2.025349607 10.785671358 0.0 0.0 0.0 0.000181384755498 9.385430982e-05 1.82669768301e-05
127 2 19.761359541 8.46581492 10.785671358 0.0 0.0 0.0 -2.18322378449e-05 1.18260909094e-05 3.32410107503e-05
128 2 12.324550169 8.46581492 10.785671358 0.0 0.0 0.0 0.000135801883117 -0.000326067799323 -2.95484613312e-05
129 1 16.07393341 2.079010738 4.819894452 0.0 0.0 0.0 -5.03597100431e-05 8.80720518708e-05 0.000224107923574
130 1 8.637124038 2.079010738 4.819894452 0.0 0.0 0.0 7.2221524323e-05 4.87265920105e-05 0.000107029531266
131 1 19.792338024 8.519476052 4.819894452 0.0 0.0 0.0 1.92824046315e-05 2.9391243501e-05 7.68389627723e-05
132 1 12.355528653 8.519476052 4.819894452 0.0 0.0 0.0 4.67752686023e-05 -3.45554173288e-05 0.000142706475181
133 1 16.073933453 2.079010731 11.756744592 0.0 0.0 0.0 0.000594959401439 -0.000422322776624 -7.00104223502e-05
134 1 8.637124082 2.079010731 11.756744592 0.0 0.0 0.0 -6.09531301741e-05 -4.77340994662e-06 -3.26294590379e-05
135 1 19.792338067 8.519476045 11.756744592 0.0 0.0 0.0 4.10260226273e-05 3.37645295952e-05 -1.00800334633e-05
136 1 12.355528696 8.519476045 11.756744592 0.0 0.0 0.0 -3.44154412334e-05 0.000222224985897 -5.94733588906e-05
137 1 1.632167798 2.826994038 3.541396624 0.0 0.0 0.0 -0.000128670311821 0.000286382580611 0.000200915999486
138 1 9.06897717 2.826994038 3.541396624 0.0 0.0 0.0 6.81487770348e-05 7.92504322379e-05 5.98131106797e-05
139 1 5.350572412 9.267459352 3.541396624 0.0 0.0 0.0 -9.37610316487e-06 3.5420022565e-05 6.43370207606e-05
140 1 12.787381784 9.267459352 3.541396624 0.0 0.0 0.0 0.0001405382654 -0.000145388366907 0.000152658912846
141 1 1.632167841 2.826994031 10.478246764 0.0 0.0 0.0 0.000147777131037 -0.000192327261012 0.000201621095217
142 1 9.068977213 2.826994031 10.478246764 0.0 0.0 0.0 -8.92800906629e-06 3.48225054203e-05 6.48125461072e-05
143 1 5.350572456 9.267459345 10.478246764 0.0 0.0 0.0 6.76124452534e-05 7.99279884576e-05 6.03130355821e-05
144 1 12.787381827 9.267459345 10.478246764 0.0 0.0 0.0 -9.01179213776e-05 0.000254027057009 0.000153529527441
145 2 12.258736453 12.880930313 6.469757221 0.0 0.0 0.0 -6.78773650792e-05 -7.04693897023e-07 -0.000591138124386
146 2 19.695545825 12.880930313 6.469757221 0.0 0.0 0.0 -3.89423173642e-05 -7.2474643256e-07 -0.000188400349955
147 2 8.540331839 6.440464999 6.469757221 0.0 0.0 0.0 -4.37388128335e-05 3.22069567284e-06 -0.000171388625233
148 2 15.97714121 6.440464999 6.469757221 0.0 0.0 0.0 -4.37005468249e-05 -4.63511403541e-06 -0.00017137407596
149 2 12.258736496 12.880930306 13.40660736 0.0 0.0 0.0 0.00795533168017 -7.06168707165e-07 0.00864964363141
150 2 19.695545868 12.880930306 13.40660736 0.0 0.0 0.0 -4.56499853148e-05 -7.01980796231e-07 0.000140289007535
151 2 8.540331882 6.440464992 13.40660736 0.0 0.0 0.0 -4.69876890525e-05 -8.69994899048e-06 0.000104281435013
152 2 15.977141254 6.440464992 13.40660736 0.0 0.0 0.0 -4.69931410547e-05 7.23978581828e-06 0.000104281516968
153 1 5.331166141 0.766954845 6.788243965 0.0 0.0 0.0 -6.16620304652e-05 2.04332136546e-05 0.000208132564098
154 1 12.767975512 0.766954845 6.788243965 0.0 0.0 0.0 -5.92016616776e-05 1.68727050276e-05 5.45067988947e-05
155 1 9.049570755 7.207420159 6.788243965 0.0 0.0 0.0 -6.21502053409e-05 1.69633667118e-05 5.35511662697e-05
156 1 16.486380127 7.207420159 6.788243965 0.0 0.0 0.0 -6.05586602217e-05 1.61461310952e-05 3.08036929397e-05
157 1 5.331166184 0.766954838 13.725094105 0.0 0.0 0.0 0.000562936422008 -0.000347315996112 -0.00188420404773
158 1 12.767975556 0.766954838 13.725094105 0.0 0.0 0.0 -7.540201616e-05 1.99813577051e-05 -0.000136594541346
159 1 9.049570798 7.207420151 13.725094105 0.0 0.0 0.0 -5.89843825131e-05 1.76341678322e-05 -0.000136640847524
160 1 16.48638017 7.207420151 13.725094105 0.0 0.0 0.0 -6.2481820747e-05 1.90181748147e-05 -8.87169541071e-05
161 1 16.486380702 5.673510068 6.788243516 0.0 0.0 0.0 -6.22806815387e-05 -1.70839714768e-05 5.61036854745e-05
162 1 9.04957133 5.673510068 6.788243516 0.0 0.0 0.0 -6.06558026999e-05 -1.62918139259e-05 3.33732136992e-05
163 1 20.204785316 12.113975382 6.788243516 0.0 0.0 0.0 -5.93266838867e-05 -1.69892643166e-05 5.70617680491e-05
164 1 12.767975944 12.113975382 6.788243516 0.0 0.0 0.0 -6.17746542537e-05 -2.05669926361e-05 0.000210694699649
165 1 16.486380745 5.673510061 13.725093655 0.0 0.0 0.0 -5.91079830579e-05 -1.77502542113e-05 -0.000134083662729
166 1 9.049571373 5.673510061 13.725093655 0.0 0.0 0.0 -6.26048008368e-05 -1.91333606432e-05 -8.61604440063e-05
167 1 20.204785359 12.113975375 13.725093655 0.0 0.0 0.0 -7.55097730658e-05 -2.01233465558e-05 -0.000134027568147
168 1 12.767975987 12.113975375 13.725093655 0.0 0.0 0.0 0.000562827759318 0.000347175281543 -0.00188163397762
169 2 12.462655523 4.175912014 6.46975888 0.0 0.0 0.0 1.96100359742e-05 -4.06438830106e-05 -0.000160360606568
170 2 5.025846151 4.175912014 6.46975888 0.0 0.0 0.0 1.11264376841e-05 -6.61958863996e-05 -0.000284626346084
171 2 16.181060137 10.616377328 6.46975888 0.0 0.0 0.0 8.52977682319e-08 -3.40501536713e-05 -0.000214720391211
172 2 8.744250765 10.616377328 6.46975888 0.0 0.0 0.0 4.59193338684e-05 -2.35334990946e-05 -0.000407528162935
173 2 12.462655566 4.175912007 13.406609019 0.0 0.0 0.0 1.44211393307e-05 -4.25622814293e-05 6.95945709394e-05
174 2 5.025846194 4.175912007 13.406609019 0.0 0.0 0.0 5.06805070015e-05 7.03314093519e-05 0.000400658382518
175 2 16.18106018 10.616377321 13.406609019 0.0 0.0 0.0 6.16200602063e-05 -5.92924363607e-05 0.000177794007853
176 2 8.744250808 10.616377321 13.406609019 0.0 0.0 0.0 -0.000275018891986 -4.10661325993e-05 0.00145963395899
177 1 4.107023344 4.233448053 6.788243333 0.0 0.0 0.0 1.19450295384e-05 -6.04505897675e-05 0.000109294056025
178 1 11.543832716 4.233448053 6.788243333 0.0 0.0 0.0 1.5429002618e-05 -6.1851960095e-05 2.84754734299e-05
179 1 7.825427958 10.673913367 6.788243333 0.0 0.0 0.0 1.51892346681e-05 -5.77577228059e-05 0.000106681463144
180 1 15.26223733 10.673913367 6.788243333 0.0 0.0 0.0 1.63594676816e-05 -6.29042299363e-05 9.1030818151e-05
181 1 4.107023387 4.233448046 13.725093473 0.0 0.0 0.0 2.21814785267e-05 -7.5856902833e-05 -0.000326510143233
182 1 11.543832759 4.233448046 13.725093473 0.0 0.0 0.0 1.22794890036e-05 -6.02691233961e-05 -7.46166669484e-05
183 1 7.825428001 10.67391336 13.725093473 0.0 0.0 0.0 -7.26509572185e-05 -0.000133398038403 -0.000248934618111
184 1 15.262237373 10.67391336 13.725093473 0.0 0.0 0.0 3.03921191632e-07 -5.29262505513e-05 -0.000227508731406
185 1 12.872237203 5.00040447 6.78824545 0.0 0.0 0.0 4.7794509775e-05 -5.16376756601e-05 2.7203993403e-05
186 1 5.435427832 5.00040447 6.78824545 0.0 0.0 0.0 4.68397311607e-05 -5.0934286728e-05 4.89768196874e-05
187 1 16.590641818 11.440869783 6.78824545 0.0 0.0 0.0 4.86707875706e-05 -5.01133880295e-05 4.46396174369e-05
188 1 9.153832446 11.440869783 6.78824545 0.0 0.0 0.0 4.34961182722e-05 -4.86112095239e-05 0.000209185599873
189 1 12.872237247 5.000404462 13.72509559 0.0 0.0 0.0 4.61003931522e-05 -4.82380542659e-05 -9.54725589534e-05
190 1 5.435427875 5.000404462 13.72509559 0.0 0.0 0.0 5.00509144469e-05 -4.29555768185e-05 -0.000134925019616
191 1 16.590641861 11.440869776 13.72509559 0.0 0.0 0.0 4.4094289603e-05 -5.12984666258e-05 -0.000130721883818
192 1 9.153832489 11.440869776 13.72509559 0.0 0.0 0.0 -1.87131775432e-05 -0.00111320542497 -0.00273038665703
193 2 1.307441393 2.264553585 6.469759523 0.0 0.0 0.0 4.36730043071e-05 2.49004126439e-05 -0.000407592384175
194 2 8.744250764 2.264553585 6.469759523 0.0 0.0 0.0 -2.09980572809e-06 3.54117502034e-05 -0.000214795013572
195 2 5.025846007 8.705018899 6.469759523 0.0 0.0 0.0 1.73712836665e-05 4.20440762858e-05 -0.00016043209472
196 2 12.462655379 8.705018899 6.469759523 0.0 0.0 0.0 8.87497688317e-06 6.76019400018e-05 -0.000284703594857
197 2 1.307441436 2.264553578 13.406609663 0.0 0.0 0.0 -0.000277256338376 4.24461728608e-05 0.00145954913356
198 2 8.744250808 2.264553578 13.406609663 0.0 0.0 0.0 5.93757444786e-05 6.06728090568e-05 0.000177712373655
199 2 5.02584605 8.705018892 13.406609663 0.0 0.0 0.0 1.2196037665e-05 4.39083502526e-05 6.95220729213e-05
200 2 12.462655422 8.705018892 13.406609663 0.0 0.0 0.0 4.84496243867e-05 -6.8978867874e-05 0.000400586466612
201 1 1.717022388 1.440060952 6.788246651 0.0 0.0 0.0 4.39985840457e-05 5.0419459002e-05 0.000205859207222
202 1 9.15383176 1.440060952 6.788246651 0.0 0.0 0.0 4.9162327215e-05 5.19354714489e-05 4.1308548523e-05
203 1 5.435427002 7.880526266 6.788246651 0.0 0.0 0.0 4.82976846578e-05 5.34280293556e-05 2.38842063177e-05
204 1 12.872236374 7.880526266 6.788246651 0.0 0.0 0.0 4.73541386917e-05 5.27126468308e-05 4.56614231499e-05
205 1 1.717022431 1.440060945 13.725096791 0.0 0.0 0.0 -1.82102480007e-05 0.00111500593841 -0.00273370162886
206 1 9.153831803 1.440060945 13.725096791 0.0 0.0 0.0 4.46034971469e-05 5.30953446576e-05 -0.000134042474844
207 1 5.435427045 7.880526258 13.725096791 0.0 0.0 0.0 4.65975279623e-05 5.00654888303e-05 -9.88041483413e-05
208 1 12.872236417 7.880526258 13.725096791 0.0 0.0 0.0 5.05465676379e-05 4.47811756132e-05 -0.000138255426237
209 1 15.262237079 2.207018097 6.788243067 0.0 0.0 0.0 1.31466500675e-05 5.59158071108e-05 0.000110380647029
210 1 7.825427708 2.207018097 6.788243067 0.0 0.0 0.0 1.42785271424e-05 6.10571188092e-05 9.47452603129e-05
211 1 18.980641693 8.647483411 6.788243067 0.0 0.0 0.0 1.33859972504e-05 6.0004448455e-05 3.21773944388e-05
212 1 11.543832322 8.647483411 6.788243067 0.0 0.0 0.0 9.90122561653e-06 5.86057752683e-05 0.000112995575768
213 1 15.262237122 2.207018089 13.725093207 0.0 0.0 0.0 -7.47045090899e-05 0.000131555421794 -0.000245228415131
214 1 7.825427751 2.207018089 13.725093207 0.0 0.0 0.0 -1.7480996268e-06 5.10838950074e-05 -0.000223804066842
215 1 18.980641736 8.647483403 13.725093207 0.0 0.0 0.0 1.02259040606e-05 5.84280210423e-05 -7.09111984504e-05
216 1 11.543832365 8.647483403 13.725093207 0.0 0.0 0.0 2.01293469574e-05 7.40152544351e-05 -0.000322805741891
217 2 10.05169036 12.880930562 3.001331049 0.0 0.0 0.0 0.00160829766681 1.18427776683e-06 -0.00200990059983
218 2 17.488499731 12.880930562 3.001331049 0.0 0.0 0.0 -3.93013612185e-05 1.20118398318e-06 -3.83583860149e-05
219 2 6.333285745 6.440465248 3.001331049 0.0 0.0 0.0 4.0880405963e-05 -4.22452382528e-05 -3.65905953121e-05
220 2 13.770095117 6.440465248 3.001331049 0.0 0.0 0.0 4.08810430466e-05 4.46676770978e-05 -3.65913580802e-05
221 2 10.051690403 12.880930555 9.938181189 0.0 0.0 0.0 -0.000516933736205 1.17783743171e-06 -0.00161129755434
222 2 17.488499774 12.880930555 9.938181189 0.0 0.0 0.0 0.00012534559041 1.18095400282e-06 -8.15762422854e-05
223 2 6.333285789 6.440465241 9.938181189 0.0 0.0 0.0 5.60598461816e-05 3.91190784567e-05 -7.49550333269e-05
224 2 13.77009516 6.440465241 9.938181189 0.0 0.0 0.0 5.60982643427e-05 -3.67673922817e-05 -7.49713672754e-05
225 1 13.26085702 5.67351034 3.319819519 0.0 0.0 0.0 4.94665375798e-05 -1.98798175454e-05 -2.32648928383e-05
226 1 5.824047648 5.67351034 3.319819519 0.0 0.0 0.0 8.70414899411e-05 4.86325103132e-05 -1.58121470727e-05
227 1 16.979261634 12.113975653 3.319819519 0.0 0.0 0.0 0.000124681661849 -2.9531084253e-05 -1.72736055101e-05
228 1 9.542452262 12.113975653 3.319819519 0.0 0.0 0.0 -0.000379718822565 -0.00027062684466 0.00040070241204
229 1 13.260857063 5.673510332 10.256669659 0.0 0.0 0.0 7.31638499548e-05 -1.52135410758e-05 -2.47253695015e-05
230 1 5.824047691 5.673510332 10.256669659 0.0 0.0 0.0 3.65516044095e-05 -8.0369038088e-05 -1.33607264438e-05
231 1 16.979261677 12.113975646 10.256669659 0.0 0.0 0.0 1.00049519227e-06 -5.78606430863e-06 -1.4900482356e-05
232 1 9.542452305 12.113975646 10.256669659 0.0 0.0 0.0 0.00049249433022 0.000279910058557 0.00060951873599
233 1 2.105642892 0.766955018 3.319818703 0.0 0.0 0.0 -0.000380563334028 0.000270673023015 0.000404681834751
234 1 9.542452263 0.766955018 3.319818703 0.0 0.0 0.0 0.000123850168438 2.95612530725e-05 -1.33002837772e-05
235 1 5.824047506 7.207420332 3.319818703 0.0 0.0 0.0 4.86383668443e-05 1.98993086847e-05 -1.92960317776e-05
236 1 13.260856878 7.207420332 3.319818703 0.0 0.0 0.0 8.62132957862e-05 -4.86130137831e-05 -1.18434696642e-05
237 1 2.105642935 0.766955011 10.256668843 0.0 0.0 0.0 0.000491649024115 -0.000279861565285 0.000613498522321
238 1 9.542452307 0.766955011 10.256668843 0.0 0.0 0.0 1.5559061156e-07 5.83307996063e-06 -1.09207974973e-05
239 1 5.824047549 7.207420325 10.256668843 0.0 0.0 0.0 7.23338971949e-05 1.52494801928e-05 -2.07525055393e-05
240 1 13.260856921 7.207420325 10.256668843 0.0 0.0 0.0 3.56888431854e-05 8.04303604494e-05 -9.37132942485e-06
241 2 13.566178647 2.264553318 3.001331607 0.0 0.0 0.0 0.000163028849811 -3.3555648703e-05 -7.10941828322e-05
242 2 6.129369276 2.264553318 3.001331607 0.0 0.0 0.0 -0.000564121672482 -0.000377198816851 -0.000293878782398
243 2 17.284583261 8.705018632 3.001331607 0.0 0.0 0.0 -4.9744929044e-05 4.70993007035e-05 -3.73519119323e-05
244 2 9.84777389 8.705018632 3.001331607 0.0 0.0 0.0 7.50340930543e-05 0.000408930562184 -0.000131748410945
245 2 13.56617869 2.26455331 9.938181747 0.0 0.0 0.0 -0.000203202074996 0.000119343748897 -0.000117713631575
246 2 6.129369319 2.26455331 9.938181747 0.0 0.0 0.0 0.00035154591043 0.000326676567111 -0.000363866171373
247 2 17.284583305 8.705018624 9.938181747 0.0 0.0 0.0 1.63997065865e-06 3.523685762e-05 -6.97039143541e-05
248 2 9.847773933 8.705018624 9.938181747 0.0 0.0 0.0 -9.44605952095e-05 -0.00026056005851 -0.000199727641548
249 1 14.485000752 2.20701716 3.319818255 0.0 0.0 0.0 -0.000165406065788 0.000135255731408 3.1553620445e-05
250 1 7.048191381 2.20701716 3.319818255 0.0 0.0 0.0 0.000125329146964 0.000129605759798 1.73137138729e-05
251 1 18.203405367 8.647482473 3.319818255 0.0 0.0 0.0 -1.67324342349e-05 6.25793168949e-05 -2.25248200818e-05
252 1 10.766595995 8.647482473 3.319818255 0.0 0.0 0.0 -1.33544876597e-05 -0.000144506272298 5.31101779287e-05
253 1 14.485000796 2.207017152 10.256668395 0.0 0.0 0.0 0.000147044487996 -2.99927279047e-05 3.41984810985e-05
254 1 7.048191424 2.207017152 10.256668395 0.0 0.0 0.0 -0.000162438917753 -1.59493364298e-05 2.25000887905e-05
255 1 18.20340541 8.647482466 10.256668395 0.0 0.0 0.0 -1.47160773317e-05 5.96368066883e-05 -2.32930247323e-05
256 1 10.766596038 8.647482466 10.256668395 0.0 0.0 0.0 -2.0082099019e-05 0.0002599196038 5.272081567e-05
257 1 5.719786092 1.440061854 3.319818129 0.0 0.0 0.0 0.000371386258937 0.000292784023754 0.000359590969875
258 1 13.156595464 1.440061854 3.319818129 0.0 0.0 0.0 -0.000116884067264 5.79503312588e-05 -3.61752246392e-06
259 1 9.438190706 7.880527168 3.319818129 0.0 0.0 0.0 -7.10501861342e-05 -2.79847586431e-05 -5.21382605819e-06
260 1 16.875000078 7.880527168 3.319818129 0.0 0.0 0.0 -3.33802875266e-05 4.96602932491e-05 -1.91342865965e-05
261 1 5.719786135 1.440061847 10.256668269 0.0 0.0 0.0 -0.000398995003544 -0.000164323019285 0.000319752183896
262 1 13.156595507 1.440061847 10.256668269 0.0 0.0 0.0 4.02619981297e-05 2.64867913072e-05 -9.25259864109e-06
263 1 9.438190749 7.880527161 10.256668269 0.0 0.0 0.0 -1.65931370312e-05 0.000126204532987 -8.94725453371e-06
264 1 16.875000121 7.880527161 10.256668269 0.0 0.0 0.0 -5.52821104654e-05 3.88468984083e-05 -1.83310033833e-05
265 2 2.410964342 4.175911908 3.001332195 0.0 0.0 0.0 7.67920097238e-05 -0.000410235298963 -0.000132636262655
266 2 9.847773713 4.175911908 3.001332195 0.0 0.0 0.0 -4.79939179243e-05 -4.83921784693e-05 -3.82331660674e-05
267 2 6.129368956 10.616377222 3.001332195 0.0 0.0 0.0 0.000164809704463 3.22765129825e-05 -7.19561562681e-05
268 2 13.566178327 10.616377222 3.001332195 0.0 0.0 0.0 -0.000562321703042 0.000375912284633 -0.000294745089643
269 2 2.410964385 4.175911901 9.938182334 0.0 0.0 0.0 -9.26645300085e-05 0.000259303646557 -0.000200573544138
270 2 9.847773757 4.175911901 9.938182334 0.0 0.0 0.0 3.38422464262e-06 -3.64855489068e-05 -7.05570524887e-05
271 2 6.129368999 10.616377215 9.938182334 0.0 0.0 0.0 -0.000201452462363 -0.000120629668223 -0.000118579626365
272 2 13.566178371 10.616377215 9.938182334 0.0 0.0 0.0 0.000353303864635 -0.000327961526695 -0.000364729123906