ITEM: TIMESTEP
0
ITEM: NUMBER OF ATOMS
288
ITEM: BOX BOUNDS xy xz yz xx yy zz
0.0 14.873618743 7.436809228
0.0 12.880930628 8.6e-08
0.0 13.87370028 -1.5e-08
ITEM: ATOMS id type x y z vx vy vz fx fy fz
1 2 2.338671397 1.12e-07 0.380392751 0.0 0.0 0.0 -2.44140591379e-05 -2.37192123717e-05 -0.000341993247554
2 2 9.775480768 1.12e-07 0.380392751 0.0 0.0 0.0 6.88566203706e-05 -1.0135567978e-05 -0.0002118331593
3 2 6.057076011 6.440465426 0.380392751 0.0 0.0 0.0 3.26747879877e-05 3.00606798971e-05 -0.000149156337592
4 2 13.493885382 6.440465426 0.380392751 0.0 0.0 0.0 2.64724839347e-05 -3.55894310152e-06 -8.81144295213e-05
5 2 2.33867144 1.04e-07 7.317242891 0.0 0.0 0.0 0.000473629374369 0.000361893369788 0.00132917230621
6 2 9.775480812 1.04e-07 7.317242891 0.0 0.0 0.0 -0.000134842662449 3.92507001807e-05 0.000438654519944
7 2 6.057076054 6.440465418 7.317242891 0.0 0.0 0.0 1.81833488555e-05 -7.35319810378e-05 0.000251366000373
8 2 13.493885426 6.440465418 7.317242891 0.0 0.0 0.0 3.21472465116e-05 6.10998749156e-06 0.000133701077176
9 1 2.400632363 4.61e-07 1.351465958 0.0 0.0 0.0 0.000137526879174 3.72893476685e-05 0.000219454265061
10 1 9.837441735 4.61e-07 1.351465958 0.0 0.0 0.0 -2.95436163556e-05 1.54734432379e-05 0.000149741269322
11 1 6.119036977 6.440465774 1.351465958 0.0 0.0 0.0 3.56119181576e-05 -4.93094874406e-05 0.00011048971694
12 1 13.555846349 6.440465774 1.351465958 0.0 0.0 0.0 4.40446557446e-05 6.51650969131e-06 7.98274395576e-05
13 1 2.400632406 4.53e-07 8.288316098 0.0 0.0 0.0 -0.000613984717369 -0.000277773162671 -0.000116347401209
14 1 9.837441778 4.53e-07 8.288316098 0.0 0.0 0.0 0.000262374717182 -5.11616649185e-05 -7.12217407688e-05
15 1 6.11903702 6.440465767 8.288316098 0.0 0.0 0.0 5.35970528451e-05 9.55310825567e-05 -3.27558849413e-05
16 1 13.555846392 6.440465767 8.288316098 0.0 0.0 0.0 3.76558357783e-05 -1.41874091656e-05 -3.86705659283e-06
17 1 10.701141082 12.880930558 0.072968506 0.0 0.0 0.0 6.0424040805e-05 3.39923585321e-06 0.000288675203884
18 1 18.137950453 12.880930558 0.072968506 0.0 0.0 0.0 6.38340366881e-05 7.40164277958e-08 0.000135100522803
19 1 6.982736468 6.440465244 0.072968506 0.0 0.0 0.0 6.06622712915e-05 5.10287578154e-07 0.000134151317313
20 1 14.419545839 6.440465244 0.072968506 0.0 0.0 0.0 6.21548862127e-05 -6.1422029885e-07 0.00011140987484
21 1 10.701141125 12.880930551 7.009818646 0.0 0.0 0.0 0.000718813396398 -0.000346231582784 -0.00180549449435
22 1 18.137950497 12.880930551 7.009818646 0.0 0.0 0.0 4.64739949322e-05 3.48313692034e-06 -5.79340011305e-05
23 1 6.982736511 6.440465237 7.009818646 0.0 0.0 0.0 6.3504547935e-05 3.1650754843e-07 -5.80474611171e-05
24 1 14.419545882 6.440465237 7.009818646 0.0 0.0 0.0 6.02943822046e-05 2.43389185887e-06 -1.01016458744e-05
25 2 13.704282012 2.025348059 0.380394512 0.0 0.0 0.0 -2.2721364098e-05 3.0797349147e-05 -0.000115741297399
26 2 6.26747264 2.025348059 0.380394512 0.0 0.0 0.0 1.02816000077e-05 6.42660356034e-05 -0.000556050043005
27 2 17.422686626 8.465813373 0.380394512 0.0 0.0 0.0 -8.81483518822e-06 2.40089994449e-05 -0.000112386462634
28 2 9.985877254 8.465813373 0.380394512 0.0 0.0 0.0 -2.05973357076e-05 1.61312813908e-05 -0.000127454867326
29 2 13.704282055 2.025348052 7.317244652 0.0 0.0 0.0 2.91666463714e-06 2.37254477174e-05 0.000159530184407
30 2 6.267472684 2.025348052 7.317244652 0.0 0.0 0.0 -0.00602788537464 -0.00944532897607 0.00688550666856
31 2 17.422686669 8.465813365 7.317244652 0.0 0.0 0.0 -2.40468797694e-05 3.68450677601e-05 0.000153425708566
32 2 9.985877298 8.465813365 7.317244652 0.0 0.0 0.0 -6.22207705031e-06 4.43046503302e-05 0.000180508250334
33 1 13.673300338 2.079010187 1.351467718 0.0 0.0 0.0 1.31000412991e-06 2.34895639994e-05 8.32862637267e-05
34 1 6.236490966 2.079010187 1.351467718 0.0 0.0 0.0 -6.74908855533e-05 -4.28820589061e-05 0.000389094067206
35 1 17.391704952 8.519475501 1.351467718 0.0 0.0 0.0 -2.33548721798e-05 3.41802695051e-05 8.02954386824e-05
36 1 9.95489558 8.519475501 1.351467718 0.0 0.0 0.0 -3.0475408392e-06 4.98932647467e-05 8.70494788032e-05
37 1 13.673300381 2.07901018 8.288317858 0.0 0.0 0.0 -4.23663583629e-05 3.54022255688e-05 -2.08796517939e-05
38 1 6.236491009 2.07901018 8.288317858 0.0 0.0 0.0 0.00211828712991 0.00291106735622 0.00312823751442
39 1 17.391704995 8.519475493 8.288317858 0.0 0.0 0.0 2.24659944086e-07 1.69654735026e-05 -1.75187670273e-05
40 1 9.954895623 8.519475493 8.288317858 0.0 0.0 0.0 -3.35152458806e-05 -8.61408009109e-06 -2.94352632857e-05
41 1 13.241451457 2.826992613 0.072968839 0.0 0.0 0.0 -3.21035917091e-05 6.02735545889e-05 0.000111955036144
42 1 5.804642085 2.826992613 0.072968839 0.0 0.0 0.0 -2.7205553924e-05 5.86988072139e-05 0.000293881448597
43 1 16.959856071 9.267457927 0.072968839 0.0 0.0 0.0 -3.10176443366e-05 6.15494042269e-05 0.000129384342899
44 1 9.523046699 9.267457927 0.072968839 0.0 0.0 0.0 -3.11664260008e-05 5.95105217549e-05 0.000133733919919
45 1 13.2414515 2.826992606 7.009818978 0.0 0.0 0.0 -2.80715938572e-05 6.03404216972e-05 -1.26837508403e-05
46 1 5.804642128 2.826992606 7.009818978 0.0 0.0 0.0 -0.000926988576584 -0.000579397328275 -0.00264746275207
47 1 16.959856114 9.26745792 7.009818978 0.0 0.0 0.0 -3.01810264465e-05 5.75508709591e-05 -4.79545910288e-05
48 1 9.523046743 9.26745792 7.009818978 0.0 0.0 0.0 -2.50605239763e-05 6.70820188514e-05 -5.21222737464e-05
49 2 17.422687622 4.415117298 0.380394729 0.0 0.0 0.0 -4.49347039221e-05 3.63412920468e-06 -0.000229806854909
50 2 9.985878251 4.415117298 0.380394729 0.0 0.0 0.0 8.78091600768e-06 -1.11605221972e-05 -0.000152246448026
51 2 21.141092236 10.855582612 0.380394729 0.0 0.0 0.0 -1.8168088097e-05 -3.25514543045e-05 -9.55576441359e-05
52 2 13.704282865 10.855582612 0.380394729 0.0 0.0 0.0 -6.57494859555e-06 -8.50527585976e-05 -0.000334948752719
53 2 17.422687665 4.415117291 7.317244869 0.0 0.0 0.0 0.000114313491049 -0.000171574973034 0.000472022792359
54 2 9.985878294 4.415117291 7.317244869 0.0 0.0 0.0 -7.16871277916e-05 -7.12267558992e-05 0.000238271688389
55 2 21.14109228 10.855582605 7.317244869 0.0 0.0 0.0 -9.14912678429e-06 -2.2024144491e-05 0.00012948338843
56 2 13.704282908 10.855582605 7.317244869 0.0 0.0 0.0 8.4372625779e-05 0.000381421541529 0.00117836119795
57 1 2.518088606 4.36145465 1.351467896 0.0 0.0 0.0 2.91804287698e-05 -8.20797430669e-05 0.000144996463917
58 1 9.954897977 4.36145465 1.351467896 0.0 0.0 0.0 -5.54788758452e-05 -5.26815479907e-05 0.000100494406477
59 1 6.23649322 10.801919964 1.351467896 0.0 0.0 0.0 -1.18217468395e-05 -1.88011226533e-05 7.55983154526e-05
60 1 13.673302591 10.801919964 1.351467896 0.0 0.0 0.0 -3.92035778437e-05 7.64751470003e-05 0.000216498162053
61 1 2.518088649 4.361454643 8.288318036 0.0 0.0 0.0 -0.000168759898957 0.000149828099475 -7.2097996594e-05
62 1 9.95489802 4.361454643 8.288318036 0.0 0.0 0.0 4.99087687669e-05 2.6505326792e-05 -3.31457097453e-05
63 1 6.236493263 10.801919957 8.288318036 0.0 0.0 0.0 -3.2528513632e-05 -3.7159643259e-05 -1.08700530002e-05
64 1 13.673302635 10.801919957 8.288318036 0.0 0.0 0.0 9.01656420274e-05 -0.00074856743962 -0.00017742660884
65 1 16.959856167 3.613473172 0.07296928 0.0 0.0 0.0 -2.70893417464e-05 -5.94606125355e-05 0.000185212012311
66 1 9.523046796 3.613473172 0.07296928 0.0 0.0 0.0 -3.0582060747e-05 -6.21425688375e-05 0.000166951851722
67 1 20.678260782 10.053938486 0.07296928 0.0 0.0 0.0 -2.96210226292e-05 -6.21609430047e-05 0.000104400552363
68 1 13.24145141 10.053938486 0.07296928 0.0 0.0 0.0 -2.58997945543e-05 -6.45756612898e-05 0.000182621962706
69 1 16.959856211 3.613473164 7.00981942 0.0 0.0 0.0 -4.2721956127e-05 -6.25380711332e-05 -0.000252804148815
70 1 9.523046839 3.613473164 7.00981942 0.0 0.0 0.0 -1.54571719879e-05 -5.41229009499e-05 -0.000153689687646
71 1 20.678260825 10.053938478 7.00981942 0.0 0.0 0.0 -2.64750170613e-05 -5.99212227421e-05 -6.38561616362e-07
72 1 13.241451453 10.053938478 7.00981942 0.0 0.0 0.0 -4.72344680026e-05 5.37099400534e-05 -0.000174143651023
73 2 5.098138192 9.1e-08 3.848820961 0.0 0.0 0.0 -0.000896089781974 -0.00179972448568 -0.00238919700541
74 2 12.534947564 9.1e-08 3.848820961 0.0 0.0 0.0 8.42833859682e-06 -1.68816480814e-05 2.64354011319e-05
75 2 8.816542806 6.440465404 3.848820961 0.0 0.0 0.0 1.90570346543e-05 8.17989874179e-05 2.5605641801e-05
76 2 16.253352178 6.440465404 3.848820961 0.0 0.0 0.0 -6.9368990572e-05 3.58760828629e-05 2.63438127801e-05
77 2 5.098138235 8.3e-08 10.785671101 0.0 0.0 0.0 0.000191929193674 0.000461013052014 -0.00134017271029
78 2 12.534947607 8.3e-08 10.785671101 0.0 0.0 0.0 -6.29160756035e-05 1.29502263393e-05 -3.57576031179e-05
79 2 8.816542849 6.440465397 10.785671101 0.0 0.0 0.0 -7.11139101388e-05 -6.82919072668e-05 -4.46834442196e-05
80 2 16.253352221 6.440465397 10.785671101 0.0 0.0 0.0 1.92531324361e-06 -3.09846515287e-05 -3.7103884495e-05
81 1 12.472986142 12.880930033 4.819894401 0.0 0.0 0.0 0.00182954029532 0.00418728379672 0.00205797996201
82 1 19.909795513 12.880930033 4.819894401 0.0 0.0 0.0 -5.53561213028e-05 8.45613808062e-06 -1.85859890961e-05
83 1 8.754581528 6.440464719 4.819894401 0.0 0.0 0.0 -6.36245330915e-05 -3.27883128805e-05 -2.45169110839e-05
84 1 16.191390899 6.440464719 4.819894401 0.0 0.0 0.0 -2.42712506693e-05 -1.66815203242e-05 -2.03937956442e-05
85 1 12.472986185 12.880930026 11.756744541 0.0 0.0 0.0 -5.66407329616e-05 -5.07095331038e-05 0.000376123948327
86 1 19.909795557 12.880930026 11.756744541 0.0 0.0 0.0 -3.43745375667e-05 -2.46776727127e-06 7.73370577673e-05
87 1 8.754581571 6.440464712 11.756744541 0.0 0.0 0.0 -2.97862264915e-05 2.07228037894e-05 8.31619336918e-05
88 1 16.191390943 6.440464712 11.756744541 0.0 0.0 0.0 -5.22573871576e-05 1.23413972289e-05 7.93880040626e-05
89 1 4.172478132 1.2e-08 3.541396305 0.0 0.0 0.0 0.000368746453965 0.00024948013749 0.000480855765253
90 1 11.609287504 1.2e-08 3.541396305 0.0 0.0 0.0 -0.000129714099487 1.19077118764e-05 6.57546925402e-05
91 1 7.890882746 6.440465326 3.541396305 0.0 0.0 0.0 -9.21476572977e-05 -6.61534211146e-05 6.72261095003e-05
92 1 15.327692118 6.440465326 3.541396305 0.0 0.0 0.0 -5.46340402274e-05 2.24505387106e-06 5.96448657462e-05
93 1 4.172478175 5e-09 10.478246445 0.0 0.0 0.0 -0.000502275304602 -0.000300731449563 0.000695862254688
94 1 11.609287547 5e-09 10.478246445 0.0 0.0 0.0 -5.95978272971e-06 -1.18901911925e-05 6.65966549061e-05
95 1 7.890882789 6.440465319 10.478246445 0.0 0.0 0.0 -4.15809681355e-05 6.28841041325e-05 6.81311122033e-05
96 1 15.327692161 6.440465319 10.478246445 0.0 0.0 0.0 -7.8291143135e-05 -2.44264267919e-06 5.68526974117e-05
97 2 12.324550744 4.415115375 3.848820709 0.0 0.0 0.0 3.19469133779e-05 -1.93844656476e-06 3.00197954811e-05
98 2 4.887741372 4.415115375 3.848820709 0.0 0.0 0.0 -8.74880976538e-05 0.000753398875532 -0.000220563421098
99 2 16.042955358 10.855580689 3.848820709 0.0 0.0 0.0 0.000275845083544 -0.000295388771586 -3.15406891714e-05
100 2 8.606145986 10.855580689 3.848820709 0.0 0.0 0.0 -0.000142173401801 -0.00015283276721 1.42585329747e-05
101 2 12.324550787 4.415115367 10.785670849 0.0 0.0 0.0 -3.31088326934e-06 -4.2865758733e-05 -2.21808824635e-05
102 2 4.887741415 4.415115367 10.785670849 0.0 0.0 0.0 6.97381984185e-05 -0.000463371821488 -0.000341722837618
103 2 16.042955401 10.855580681 10.785670849 0.0 0.0 0.0 -0.000179705688511 0.000167447276178 -0.000147325856014
104 2 8.606146029 10.855580681 10.785670849 0.0 0.0 0.0 0.000151170004118 8.43575767654e-05 -7.25883878384e-05
105 1 12.355530592 4.361455296 4.81989398 0.0 0.0 0.0 1.43876256983e-05 -4.25864092262e-05 -6.26666942451e-06
106 1 4.91872122 4.361455296 4.81989398 0.0 0.0 0.0 9.15401527684e-05 -0.000544651993919 -9.00817640424e-05
107 1 16.073935206 10.801920609 4.81989398 0.0 0.0 0.0 -0.000140576970024 0.000131208150671 -5.99477356091e-05
108 1 8.637125834 10.801920609 4.81989398 0.0 0.0 0.0 0.000102313226209 3.04855869687e-05 -3.16434787147e-05
109 1 12.355530635 4.361455288 11.75674412 0.0 0.0 0.0 2.86684446274e-05 -2.76741049948e-05 7.39114170479e-05
110 1 4.918721263 4.361455288 11.75674412 0.0 0.0 0.0 9.69348311889e-06 5.71053166772e-05 0.000205831558429
111 1 16.073935249 10.801920602 11.75674412 0.0 0.0 0.0 7.66429941226e-05 -8.51674618728e-05 0.000149284095101
112 1 8.637125877 10.801920602 11.75674412 0.0 0.0 0.0 -1.9184554541e-05 -6.44349292993e-05 0.000110474972708
113 1 12.787381758 3.613470486 3.541396271 0.0 0.0 0.0 3.01785282974e-05 -6.62978438474e-05 5.94099947626e-05
114 1 5.350572387 3.613470486 3.541396271 0.0 0.0 0.0 2.20374237407e-05 -0.000534374692182 0.000437861982724
115 1 16.505786372 10.0539358 3.541396271 0.0 0.0 0.0 -1.85811379491e-05 1.67406129787e-06 7.51273973303e-05
116 1 9.068977001 10.0539358 3.541396271 0.0 0.0 0.0 7.84076024272e-05 4.97671417969e-06 7.35612890357e-05
117 1 12.787381802 3.613470479 10.478246411 0.0 0.0 0.0 2.85921559464e-05 -4.19725340947e-05 5.89061801226e-05
118 1 5.35057243 3.613470479 10.478246411 0.0 0.0 0.0 3.27149803936e-05 0.000360447059402 0.000397572021388
119 1 16.505786416 10.053935793 10.478246411 0.0 0.0 0.0 8.72590129411e-05 -0.000118787930618 6.774294313e-05
120 1 9.068977044 10.053935793 10.478246411 0.0 0.0 0.0 -2.79102935384e-05 -0.000119399708751 6.80504624284e-05
121 2 16.042954883 2.025349614 3.848821218 0.0 0.0 0.0 -0.0003943433744 0.000126761220325 -4.61135243203e-05
122 2 8.606145512 2.025349614 3.848821218 0.0 0.0 0.0 0.000711425577191 0.000286589877821 -0.000197836059081
123 2 19.761359497 8.465814928 3.848821218 0.0 0.0 0.0 2.0984290344e-05 5.56215627034e-05 2.99317360425e-05
124 2 12.324550126 8.465814928 3.848821218 0.0 0.0 0.0 -1.10682915573e-05 -0.000162102584566 1.6837913636e-05
125 2 16.042954927 2.025349607 10.785671358 0.0 0.0 0.0 0.000296785557383 -5.16855407802e-05 -0.000166763421964
126 2 8.606145555 2.025349607 10.785671358 0.0 0.0 0.0 -0.000387636822828 -0.000127452751791 -0.000322311613241
127 2 19.761359541 8.46581492 10.785671358 0.0 0.0 0.0 8.03578236241e-06 -2.94473808071e-06 -2.25052931314e-05
128 2 12.324550169 8.46581492 10.785671358 0.0 0.0 0.0 3.2449716567e-05 0.000190616627219 -6.71723604169e-05
129 1 16.07393341 2.079010738 4.819894452 0.0 0.0 0.0 0.000262630855018 -2.44027124414e-05 -6.47028187001e-05
130 1 8.637124038 2.079010738 4.819894452 0.0 0.0 0.0 -0.0004884518966 -0.000157779590804 -7.82040995218e-05
131 1 19.792338024 8.519476052 4.819894452 0.0 0.0 0.0 2.51201901337e-05 1.5928134517e-05 -6.84224947514e-06
132 1 12.355528653 8.519476052 4.819894452 0.0 0.0 0.0 4.01164545847e-05 0.000115883357306 -2.76211060278e-05
133 1 16.073933453 2.079010731 11.756744592 0.0 0.0 0.0 -4.33186319421e-05 4.80731595963e-05 0.000150692361865
134 1 8.637124082 2.079010731 11.756744592 0.0 0.0 0.0 0.000118786575783 6.22451547977e-05 0.00021472067699
135 1 19.792338067 8.519476045 11.756744592 0.0 0.0 0.0 2.97796945421e-05 4.05715161282e-05 7.48063504378e-05
136 1 12.355528696 8.519476045 11.756744592 0.0 0.0 0.0 2.282542606e-05 -1.5997362375e-05 0.000104671571913
137 1 1.632167798 2.826994038 3.541396624 0.0 0.0 0.0 0.000205717779372 -4.38769830391e-05 0.000134682174347
138 1 9.06897717 2.826994038 3.541396624 0.0 0.0 0.0 -0.000111103356518 -3.5730540793e-05 0.000113091716401
139 1 5.350572412 9.267459352 3.541396624 0.0 0.0 0.0 2.55377400094e-05 5.63145507777e-05 5.85375862496e-05
140 1 12.787381784 9.267459352 3.541396624 0.0 0.0 0.0 3.8464064809e-05 0.000212170487774 9.88598884004e-05
141 1 1.632167841 2.826994031 10.478246764 0.0 0.0 0.0 -0.000147867687182 0.000152472618974 0.000132149045621
142 1 9.068977213 2.826994031 10.478246764 0.0 0.0 0.0 0.000188341671189 0.000152239608781 0.00011360302528
143 1 5.350572456 9.267459345 10.478246764 0.0 0.0 0.0 2.90658282859e-05 5.64741660949e-05 5.65354103027e-05
144 1 12.787381827 9.267459345 10.478246764 0.0 0.0 0.0 2.06409889818e-05 -0.000109986908778 0.000101912961371
145 2 12.258736453 12.880930313 6.469757221 0.0 0.0 0.0 0.0873053380499 0.103443021603 0.0774765781229
146 2 19.695545825 12.880930313 6.469757221 0.0 0.0 0.0 -3.90446061564e-05 -2.8276008237e-06 0.000100033317415
147 2 8.540331839 6.440464999 6.469757221 0.0 0.0 0.0 -3.7343451242e-05 1.13477360152e-05 0.000123353764963
148 2 15.97714121 6.440464999 6.469757221 0.0 0.0 0.0 -4.99411428025e-05 4.64261610751e-06 0.000103661325958
149 2 12.258736496 12.880930306 13.40660736 0.0 0.0 0.0 -3.67597063274e-05 1.56435617346e-05 -0.000615829738235
150 2 19.695545868 12.880930306 13.40660736 0.0 0.0 0.0 -4.73907601104e-05 5.93167331638e-07 -0.000170337251791
151 2 8.540331882 6.440464992 13.40660736 0.0 0.0 0.0 -4.80648647528e-05 -6.44180322572e-06 -0.000182201470085
152 2 15.977141254 6.440464992 13.40660736 0.0 0.0 0.0 -4.17418351855e-05 -3.28020714435e-06 -0.000172224049295
153 1 5.331166141 0.766954845 6.798243965 0.0 0.0 0.0 -0.0743163637621 -0.0880936986363 -0.0757972530482
154 1 12.767975512 0.766954845 6.788243965 0.0 0.0 0.0 -5.91018928074e-05 1.63780388973e-05 -9.88842234821e-05
155 1 9.049570755 7.207420159 6.788243965 0.0 0.0 0.0 -5.84760489275e-05 2.17294244768e-05 -8.99458572364e-05
156 1 16.486380127 7.207420159 6.788243965 0.0 0.0 0.0 -6.32815886334e-05 1.91756515618e-05 -9.75162486849e-05
157 1 5.331166184 0.766954838 13.725094105 0.0 0.0 0.0 -5.83175765749e-05 2.32629546152e-05 0.000285197250526
158 1 12.767975556 0.766954838 13.725094105 0.0 0.0 0.0 -6.23444709312e-05 1.75587975065e-05 3.74683715695e-05
159 1 9.049570798 7.207420151 13.725094105 0.0 0.0 0.0 -6.25822505468e-05 1.49314826585e-05 3.2929139891e-05
160 1 16.48638017 7.207420151 13.725094105 0.0 0.0 0.0 -6.01843962016e-05 1.61283466465e-05 3.67565644216e-05
161 1 16.486380702 5.673510068 6.788243516 0.0 0.0 0.0 -6.08125920485e-05 -1.87817762648e-05 -0.00013088994777
162 1 9.04957133 5.673510068 6.788243516 0.0 0.0 0.0 -6.11726622292e-05 -1.62530674634e-05 -0.000130883569381
163 1 20.204785316 12.113975382 6.788243516 0.0 0.0 0.0 -5.92269012501e-05 -1.72499495001e-05 -8.76913414192e-05
164 1 12.767975944 12.113975382 6.788243516 0.0 0.0 0.0 -0.0102422531171 -0.0103310997434 -0.00856092378639
165 1 16.486380745 5.673510061 13.725093655 0.0 0.0 0.0 -6.15905385005e-05 -1.65146278539e-05 5.57774976224e-05
166 1 9.049571373 5.673510061 13.725093655 0.0 0.0 0.0 -6.14226958514e-05 -1.77106216225e-05 5.5776850646e-05
167 1 20.204785359 12.113975375 13.725093655 0.0 0.0 0.0 -6.24522523656e-05 -1.72364197628e-05 3.46022085232e-05
168 1 12.767975987 12.113975375 13.725093655 0.0 0.0 0.0 -5.84252456275e-05 -1.75540439139e-05 0.000216823373504
169 2 12.462655523 4.175912014 6.46975888 0.0 0.0 0.0 1.99110825762e-05 -3.83140227346e-05 6.47954924627e-05
170 2 5.025846151 4.175912014 6.46975888 0.0 0.0 0.0 -1.2142235787e-05 0.000236371751248 0.00107417028935
171 2 16.181060137 10.616377328 6.46975888 0.0 0.0 0.0 0.000102291137698 -0.000114921064007 0.00040777800074
172 2 8.744250765 10.616377328 6.46975888 0.0 0.0 0.0 -3.6438488052e-05 -7.92226203782e-05 0.000193862133947
173 2 12.462655566 4.175912007 13.406609019 0.0 0.0 0.0 1.58791071533e-05 -4.29929418718e-05 -0.000158276376598
174 2 5.025846194 4.175912007 13.406609019 0.0 0.0 0.0 2.0773318381e-05 -7.32513125868e-05 -0.000395188026078
175 2 16.18106018 10.616377321 13.406609019 0.0 0.0 0.0 -1.95763383602e-06 -2.45216049258e-05 -0.00028558658764
176 2 8.744250808 10.616377321 13.406609019 0.0 0.0 0.0 3.42215500819e-05 -2.93978845001e-05 -0.000227583116142
177 1 4.107023344 4.233448053 6.788243333 0.0 0.0 0.0 1.43760334305e-05 -3.44466067462e-05 -0.000511444926999
178 1 11.543832716 4.233448053 6.788243333 0.0 0.0 0.0 1.38062883246e-05 -6.10658221685e-05 -9.43203971017e-05
179 1 7.825427958 10.673913367 6.788243333 0.0 0.0 0.0 1.49258181462e-05 -6.31678023384e-05 -9.92679382949e-05
180 1 15.26223733 10.673913367 6.788243333 0.0 0.0 0.0 -9.90859937975e-06 -4.3492371558e-05 -0.000403452117377
181 1 4.107023387 4.233448046 13.725093473 0.0 0.0 0.0 1.38658817248e-05 -6.21471937464e-05 0.000139051019263
182 1 11.543832759 4.233448046 13.725093473 0.0 0.0 0.0 1.45824339173e-05 -6.14592334783e-05 4.02548728288e-05
183 1 7.825428001 10.67391336 13.725093473 0.0 0.0 0.0 1.39953317044e-05 -6.08007521595e-05 4.34219692816e-05
184 1 15.262237373 10.67391336 13.725093473 0.0 0.0 0.0 1.56292583525e-05 -6.20700016786e-05 0.000124726065058
185 1 12.872237203 5.00040447 6.78824545 0.0 0.0 0.0 4.79932871052e-05 -4.92271925033e-05 -8.3772597076e-05
186 1 5.435427832 5.00040447 6.78824545 0.0 0.0 0.0 4.04230260105e-05 -1.15508722888e-05 -0.00026863550702
187 1 16.590641818 11.440869783 6.78824545 0.0 0.0 0.0 4.21722041657e-05 -5.68466820086e-05 -0.00028857322871
188 1 9.153832446 11.440869783 6.78824545 0.0 0.0 0.0 8.64637785234e-05 -3.54665484241e-05 -0.000268413811925
189 1 12.872237247 5.000404462 13.72509559 0.0 0.0 0.0 4.67923235706e-05 -5.1291474183e-05 2.00653239567e-05
190 1 5.435427875 5.000404462 13.72509559 0.0 0.0 0.0 4.82326822518e-05 -5.24499398269e-05 9.54168370859e-05
191 1 16.590641861 11.440869776 13.72509559 0.0 0.0 0.0 4.83699255115e-05 -4.9104602583e-05 9.12618841916e-05
192 1 9.153832489 11.440869776 13.72509559 0.0 0.0 0.0 4.46085526924e-05 -5.09362381412e-05 9.54254904487e-05
193 2 1.307441393 2.264553585 6.469759523 0.0 0.0 0.0 -0.000103494466737 8.2511813702e-05 0.000465593790123
194 2 8.744250764 2.264553585 6.469759523 0.0 0.0 0.0 0.000255474898159 0.000141438081514 0.00100118311076
195 2 5.025846007 8.705018899 6.469759523 0.0 0.0 0.0 1.60055098206e-05 4.67293976179e-05 6.53718016611e-05
196 2 12.462655379 8.705018899 6.469759523 0.0 0.0 0.0 1.06214034526e-05 -2.00588254876e-05 0.000178455341292
197 2 1.307441436 2.264553578 13.406609663 0.0 0.0 0.0 4.02138921031e-05 3.40511902816e-05 -0.000298562210184
198 2 8.744250808 2.264553578 13.406609663 0.0 0.0 0.0 -1.42838734452e-05 3.04435464821e-05 -0.000386196299922
199 2 5.02584605 8.705018892 13.406609663 0.0 0.0 0.0 1.45621530849e-05 4.00276989564e-05 -0.000158713154382
200 2 12.462655422 8.705018892 13.406609663 0.0 0.0 0.0 1.65280351864e-05 6.26045318225e-05 -0.000222710843607
201 1 1.717022388 1.440060952 6.788246651 0.0 0.0 0.0 7.6356783275e-05 3.80337004239e-05 -0.000523458854595
202 1 9.15383176 1.440060952 6.788246651 0.0 0.0 0.0 7.10913514652e-05 6.38404022638e-05 -0.000415783233821
203 1 5.435427002 7.880526266 6.788246651 0.0 0.0 0.0 4.81702432295e-05 5.22030723831e-05 -0.000106494133416
204 1 12.872236374 7.880526266 6.788246651 0.0 0.0 0.0 4.57764905314e-05 5.30522066246e-05 -0.000111441280854
205 1 1.717022431 1.440060945 13.725096791 0.0 0.0 0.0 4.65856134337e-05 5.32375098424e-05 0.000126887546999
206 1 9.153831803 1.440060945 13.725096791 0.0 0.0 0.0 4.70495669293e-05 5.16602144783e-05 0.000112551828777
207 1 5.435427045 7.880526258 13.725096791 0.0 0.0 0.0 4.74673509405e-05 5.23810975821e-05 2.80748281963e-05
208 1 12.872236417 7.880526258 13.725096791 0.0 0.0 0.0 4.83353425121e-05 5.21598867801e-05 3.12427383846e-05
209 1 15.262237079 2.207018097 6.788243067 0.0 0.0 0.0 8.42403443446e-07 6.17124786029e-05 -0.000128797087103
210 1 7.825427708 2.207018097 6.788243067 0.0 0.0 0.0 1.12867408944e-05 4.38435063971e-05 -0.00137920572058
211 1 18.980641693 8.647483411 6.788243067 0.0 0.0 0.0 1.15302104313e-05 6.04575110305e-05 -8.03619845614e-05
212 1 11.543832322 8.647483411 6.788243067 0.0 0.0 0.0 1.61324050039e-05 7.1269516803e-05 -0.000128742622855
213 1 15.262237122 2.207018089 13.725093207 0.0 0.0 0.0 1.34331797748e-05 5.95595897653e-05 6.52204261117e-05
214 1 7.825427751 2.207018089 13.725093207 0.0 0.0 0.0 1.18062579039e-05 6.10200815582e-05 0.000205920160963
215 1 18.980641736 8.647483403 13.725093207 0.0 0.0 0.0 1.26593440235e-05 5.88530175736e-05 3.84994647969e-05
216 1 11.543832365 8.647483403 13.725093207 0.0 0.0 0.0 1.15167483669e-05 5.81618179895e-05 6.52217474418e-05
217 2 10.05169036 12.880930562 3.001331049 0.0 0.0 0.0 -0.000442232576494 -0.000215440730536 -0.000421522784334
218 2 17.488499731 12.880930562 3.001331049 0.0 0.0 0.0 0.00032936109368 -6.30329921457e-05 -0.000177845347099
219 2 6.333285745 6.440465248 3.001331049 0.0 0.0 0.0 7.20859079383e-05 0.000168161345447 -0.000106106867537
220 2 13.770095117 6.440465248 3.001331049 0.0 0.0 0.0 4.06146231342e-05 -2.56432826474e-05 -6.66095840634e-05
221 2 10.051690403 12.880930555 9.938181189 0.0 0.0 0.0 0.000797346966877 0.000286772118672 -0.000390855593505
222 2 17.488499774 12.880930555 9.938181189 0.0 0.0 0.0 -0.000288521919376 7.51196271473e-05 -0.000109008733414
223 2 6.333285789 6.440465241 9.938181189 0.0 0.0 0.0 2.35779822669e-05 -0.000185472769168 -5.6612463033e-05
224 2 13.77009516 6.440465241 9.938181189 0.0 0.0 0.0 5.80256065324e-05 3.16668506656e-05 -3.27423430148e-05
225 1 13.26085702 5.67351034 3.319819519 0.0 0.0 0.0 6.57468426734e-05 -1.92152121329e-05 -2.63641061485e-05
226 1 5.824047648 5.67351034 3.319819519 0.0 0.0 0.0 4.79502794171e-05 -0.000183958471904 2.33442146949e-05
227 1 16.979261634 12.113975653 3.319819519 0.0 0.0 0.0 -9.50535146251e-05 6.37890637227e-05 3.24728129188e-05
228 1 9.542452262 12.113975653 3.319819519 0.0 0.0 0.0 0.000218642407081 0.000103011586162 3.13055746275e-05
229 1 13.260857063 5.673510332 10.256669659 0.0 0.0 0.0 5.68505445352e-05 -1.55380952711e-05 -2.60211819883e-05
230 1 5.824047691 5.673510332 10.256669659 0.0 0.0 0.0 7.4721853801e-05 0.000149783752311 2.3271643908e-05
231 1 16.979261677 12.113975646 10.256669659 0.0 0.0 0.0 0.000218364796705 -9.88168983826e-05 3.23943825903e-05
232 1 9.542452305 12.113975646 10.256669659 0.0 0.0 0.0 -9.69740715148e-05 -0.000138395167955 3.10930036318e-05
233 1 2.105642892 0.766955018 3.319818703 0.0 0.0 0.0 0.000354563585322 3.04240393459e-05 0.000129755593302
234 1 9.542452263 0.766955018 3.319818703 0.0 0.0 0.0 -0.000164050036668 1.92120338155e-05 6.77192442741e-05
235 1 5.824047506 7.207420332 3.319818703 0.0 0.0 0.0 6.01416373998e-05 -2.69092103838e-05 -1.99164975828e-05
236 1 13.260856878 7.207420332 3.319818703 0.0 0.0 0.0 6.06993797556e-05 5.86335155855e-05 -1.69648818915e-05
237 1 2.105642935 0.766955011 10.256668843 0.0 0.0 0.0 -0.000235622172564 3.05045335745e-05 0.000129785155597
238 1 9.542452307 0.766955011 10.256668843 0.0 0.0 0.0 0.000286040981235 1.92691602863e-05 6.7597845985e-05
239 1 5.824047549 7.207420325 10.256668843 0.0 0.0 0.0 6.02495030328e-05 5.87608290581e-05 -1.67087428775e-05
240 1 13.260856921 7.207420325 10.256668843 0.0 0.0 0.0 6.07885972937e-05 -2.69462770524e-05 -1.96651833301e-05
241 2 13.566178647 2.264553318 3.001331607 0.0 0.0 0.0 -7.33847557146e-05 5.69836882243e-05 -8.01540553839e-05
242 2 6.129369276 2.264553318 3.001331607 0.0 0.0 0.0 0.000377161543242 0.000650410943057 -0.00141246351556
243 2 17.284583261 8.705018632 3.001331607 0.0 0.0 0.0 1.03867559532e-05 1.47730252961e-05 -7.81215665438e-05
244 2 9.84777389 8.705018632 3.001331607 0.0 0.0 0.0 -6.39870121829e-05 -3.53026348486e-05 -8.69529786938e-05
245 2 13.56617869 2.26455331 9.938181747 0.0 0.0 0.0 3.40590829782e-05 2.2845665081e-05 -4.10430276586e-05
246 2 6.129369319 2.26455331 9.938181747 0.0 0.0 0.0 -0.000725149143008 -0.00104747930495 -0.00181786653064
247 2 17.284583305 8.705018624 9.938181747 0.0 0.0 0.0 -5.99757550921e-05 7.04666747784e-05 -3.99239841421e-05
248 2 9.847773933 8.705018624 9.938181747 0.0 0.0 0.0 2.72386710213e-05 0.000132645164089 -3.77581006664e-05
249 1 14.485000752 2.20701716 3.319818255 0.0 0.0 0.0 5.93976336322e-05 4.49339730094e-05 -8.23920254684e-06
250 1 7.048191381 2.20701716 3.319818255 0.0 0.0 0.0 -0.000441034767434 -0.000212512749576 0.000408853836705
251 1 18.203405367 8.647482473 3.319818255 0.0 0.0 0.0 -2.73777522394e-05 5.70135093651e-05 -2.17575595614e-05
252 1 10.766595995 8.647482473 3.319818255 0.0 0.0 0.0 8.94533079942e-06 0.000129769229892 -9.56147551186e-06
253 1 14.485000796 2.207017152 10.256668395 0.0 0.0 0.0 -9.33526933535e-05 7.80164628044e-05 -9.90712959061e-06
254 1 7.048191424 2.207017152 10.256668395 0.0 0.0 0.0 0.000388489102391 0.000280693470015 0.000326297704654
255 1 18.20340541 8.647482466 10.256668395 0.0 0.0 0.0 -4.34068644911e-06 6.51489656181e-05 -2.06660232882e-05
256 1 10.766596038 8.647482466 10.256668395 0.0 0.0 0.0 -4.33637684723e-05 -1.66007729976e-05 -1.34981662963e-05
257 1 5.719786092 1.440061854 3.319818129 0.0 0.0 0.0 -0.000135907926786 -0.000105715009576 0.00126958813031
258 1 13.156595464 1.440061854 3.319818129 0.0 0.0 0.0 -4.09122152398e-05 4.37029303891e-05 -1.7395539583e-05
259 1 9.438190706 7.880527168 3.319818129 0.0 0.0 0.0 -4.32044821299e-05 4.64217572664e-05 -1.91630601479e-05
260 1 16.875000078 7.880527168 3.319818129 0.0 0.0 0.0 -4.65217200739e-05 4.68505766159e-05 -1.72302770334e-05
261 1 5.719786135 1.440061847 10.256668269 0.0 0.0 0.0 4.18896018382e-05 0.000202361105051 0.00128255814835
262 1 13.156595507 1.440061847 10.256668269 0.0 0.0 0.0 -4.77067977624e-05 4.49028327039e-05 -1.69479206379e-05
263 1 9.438190749 7.880527161 10.256668269 0.0 0.0 0.0 -4.5650205793e-05 4.22540547501e-05 -1.88701216356e-05
264 1 16.875000121 7.880527161 10.256668269 0.0 0.0 0.0 -4.21376591253e-05 4.16159525595e-05 -1.71203082837e-05
265 2 2.410964342 4.175911908 3.001332195 0.0 0.0 0.0 -0.00022807653642 0.000189364464024 -0.000197363573467
266 2 9.847773713 4.175911908 3.001332195 0.0 0.0 0.0 0.000109583864931 5.47288897519e-05 -0.000108187515917
267 2 6.129368956 10.616377222 3.001332195 0.0 0.0 0.0 -4.58136838953e-05 -6.4559676336e-05 -7.18498029315e-05
268 2 13.566178327 10.616377222 3.001332195 0.0 0.0 0.0 5.28916234909e-05 -0.000546026121208 -0.000384333106183
269 2 2.410964385 4.175911901 9.938182334 0.0 0.0 0.0 0.000226728981613 -0.000323886979226 -0.000126778546546
270 2 9.847773757 4.175911901 9.938182334 0.0 0.0 0.0 -0.000166708196051 -0.000150313260185 -5.95284809226e-05
271 2 6.129368999 10.616377215 9.938182334 0.0 0.0 0.0 7.33180611562e-06 -1.75933005005e-05 -3.7680815633e-05
272 2 13.566178371 10.616377215 9.938182334 0.0 0.0 0.0 -0.000166346090152 0.000701247387278 -0.000345217534132