ITEM: TIMESTEP
0
ITEM: NUMBER OF ATOMS
288
ITEM: BOX BOUNDS xy xz yz xx yy zz
0.0 14.873618743 7.436809228
0.0 12.880930628 8.6e-08
0.0 13.87370028 -1.5e-08
ITEM: ATOMS id type x y z vx vy vz fx fy fz
1 2 2.338671397 1.12e-07 0.380392751 0.0 0.0 0.0 0.0694665867773 4.63694526553e-07 -0.0895928608907
2 2 9.775480768 1.12e-07 0.380392751 0.0 0.0 0.0 5.07342442629e-05 4.98166841845e-07 -0.000148595293211
3 2 6.057076011 6.440465426 0.380392751 0.0 0.0 0.0 3.09228584329e-05 1.09877116627e-05 -0.000130420487453
4 2 13.493885382 6.440465426 0.380392751 0.0 0.0 0.0 3.09367551026e-05 -9.99290878941e-06 -0.000130415286225
5 2 2.33867144 1.04e-07 7.317242891 0.0 0.0 0.0 5.81797241964e-05 5.01229907218e-07 0.000598189482887
6 2 9.775480812 1.04e-07 7.317242891 0.0 0.0 0.0 1.80636833671e-05 5.03794360283e-07 0.000147421834967
7 2 6.057076054 6.440465418 7.317242891 0.0 0.0 0.0 2.78734382271e-05 -4.96998864202e-06 0.000137939184381
8 2 13.493885426 6.440465418 7.317242891 0.0 0.0 0.0 2.78286285048e-05 5.972322776e-06 0.000137952159272
9 1 2.400632363 4.61e-07 1.351465958 0.0 0.0 0.0 0.0376634588252 -1.85540767069e-06 -0.00206831865331
10 1 9.837441735 4.61e-07 1.351465958 0.0 0.0 0.0 -1.80949752431e-06 -1.85065725409e-06 9.5944820932e-05
11 1 6.119036977 6.440465774 1.351465958 0.0 0.0 0.0 3.70721443105e-05 -2.21597825396e-05 8.86601532282e-05
12 1 13.555846349 6.440465774 1.351465958 0.0 0.0 0.0 3.70666667677e-05 1.84638206609e-05 8.86579042472e-05
13 1 2.400632406 4.53e-07 8.288316098 0.0 0.0 0.0 -3.31879251602e-05 -1.8497099241e-06 -0.000328220783565
14 1 9.837441778 4.53e-07 8.288316098 0.0 0.0 0.0 6.46095036114e-05 -1.84975535438e-06 -1.67176920954e-05
15 1 6.11903702 6.440465767 8.288316098 0.0 0.0 0.0 4.32035254567e-05 9.94130592643e-06 -1.07492663344e-05
16 1 13.555846392 6.440465767 8.288316098 0.0 0.0 0.0 4.32038281343e-05 -1.36414334096e-05 -1.07496454834e-05
17 1 10.701141082 12.880930558 0.062968506 0.0 0.0 0.0 -0.0986830977554 4.78314971761e-07 0.0941936163969
18 1 18.137950453 12.880930558 0.072968506 0.0 0.0 0.0 6.9936338704e-05 4.34738019035e-07 0.000123401826959
19 1 6.982736468 6.440465244 0.072968506 0.0 0.0 0.0 6.23968811257e-05 4.43132777851e-06 0.000130382050119
20 1 14.419545839 6.440465244 0.072968506 0.0 0.0 0.0 6.23944912014e-05 -3.56155309897e-06 0.000130379265531
21 1 10.701141125 12.880930551 7.009818646 0.0 0.0 0.0 7.26282334977e-05 4.32108796187e-07 -0.000249320782908
22 1 18.137950497 12.880930551 7.009818646 0.0 0.0 0.0 5.73499257346e-05 4.31838969727e-07 -3.57621284366e-06
23 1 6.982736511 6.440465237 7.009818646 0.0 0.0 0.0 6.10879781307e-05 -1.65205590832e-06 -7.21405938111e-06
24 1 14.419545882 6.440465237 7.009818646 0.0 0.0 0.0 6.11262092173e-05 2.51513940225e-06 -7.2246032499e-06
25 2 13.704282012 2.025348059 0.380394512 0.0 0.0 0.0 -0.000118627624105 7.80422695478e-05 -0.000237326515476
26 2 6.26747264 2.025348059 0.380394512 0.0 0.0 0.0 0.000331482956767 0.000280594617069 -0.000978835186456
27 2 17.422686626 8.465813373 0.380394512 0.0 0.0 0.0 -8.18417251813e-06 2.65903391247e-05 -0.000107291393524
28 2 9.985877254 8.465813373 0.380394512 0.0 0.0 0.0 -5.04000844874e-05 -0.000171283379511 -0.000466262303924
29 2 13.704282055 2.025348052 7.317244652 0.0 0.0 0.0 1.81162313357e-05 1.2518291259e-05 0.000184155120624
30 2 6.267472684 2.025348052 7.317244652 0.0 0.0 0.0 -5.85928712224e-05 -4.10708993235e-06 0.000339052186901
31 2 17.422686669 8.465813365 7.317244652 0.0 0.0 0.0 -1.80794640752e-05 2.90119048902e-05 0.000111250921833
32 2 9.985877298 8.465813365 7.317244652 0.0 0.0 0.0 -6.4173222443e-06 7.25226849955e-05 0.000247170328209
33 1 13.673300338 2.079010187 1.351467718 0.0 0.0 0.0 9.56072779381e-05 -1.55743581201e-05 9.5970507639e-05
34 1 6.236490966 2.079010187 1.351467718 0.0 0.0 0.0 -0.00046908573664 -0.000298424172943 0.000191476260948
35 1 17.391704952 8.519475501 1.351467718 0.0 0.0 0.0 -2.44341387949e-05 2.97431863019e-05 7.22969872421e-05
36 1 9.95489558 8.519475501 1.351467718 0.0 0.0 0.0 3.78818569339e-05 0.000255716891733 0.000132106903366
37 1 13.673300381 2.07901018 8.288317858 0.0 0.0 0.0 -6.59146417439e-05 5.07717882003e-05 -4.81484331676e-05
38 1 6.236491009 2.07901018 8.288317858 0.0 0.0 0.0 6.53256516813e-05 8.60472290284e-05 -0.000138097069973
39 1 17.391704995 8.519475493 8.288317858 0.0 0.0 0.0 -7.53934663455e-06 2.72562026095e-05 -8.32274889299e-06
40 1 9.954895623 8.519475493 8.288317858 0.0 0.0 0.0 -2.96544418339e-05 -4.37362759664e-05 -7.77616784971e-05
41 1 13.241451457 2.826992613 0.072968839 0.0 0.0 0.0 -3.22185120183e-05 5.72770763516e-05 0.00014367743122
42 1 5.804642085 2.826992613 0.072968839 0.0 0.0 0.0 4.17078013004e-06 8.16620866635e-05 0.000497581202635
43 1 16.959856071 9.267457927 0.072968839 0.0 0.0 0.0 -3.05455083342e-05 6.10014063742e-05 0.000126700322489
44 1 9.523046699 9.267457927 0.072968839 0.0 0.0 0.0 -2.80587502296e-05 0.000105703397594 0.00049735192183
45 1 13.2414515 2.826992606 7.009818978 0.0 0.0 0.0 -3.03191572918e-05 6.12046102668e-05 -1.26652746117e-05
46 1 5.804642128 2.826992606 7.009818978 0.0 0.0 0.0 -3.23757164644e-05 5.98700325121e-05 -9.68817770624e-05
47 1 16.959856114 9.26745792 7.009818978 0.0 0.0 0.0 -3.08592572125e-05 5.98097504403e-05 -5.02459027812e-06
48 1 9.523046743 9.26745792 7.009818978 0.0 0.0 0.0 -3.04179653962e-05 5.79993347609e-05 -9.6885681454e-05
49 2 17.422687622 4.415117298 0.380394729 0.0 0.0 0.0 -5.06597206128e-05 0.000170981038156 -0.000465298778647
50 2 9.985878251 4.415117298 0.380394729 0.0 0.0 0.0 -8.44514455787e-06 -2.68941229727e-05 -0.000106326575998
51 2 21.141092236 10.855582612 0.380394729 0.0 0.0 0.0 -0.000118872065993 -7.83304730263e-05 -0.0002363580742
52 2 13.704282865 10.855582612 0.380394729 0.0 0.0 0.0 0.000331219913332 -0.000280898261074 -0.00097786728173
53 2 17.422687665 4.415117291 7.317244869 0.0 0.0 0.0 -6.65754266915e-06 -7.28053950474e-05 0.000248138159384
54 2 9.985878294 4.415117291 7.317244869 0.0 0.0 0.0 -1.83398113613e-05 -2.93231099758e-05 0.000112218071934
55 2 21.14109228 10.855582605 7.317244869 0.0 0.0 0.0 1.78342631505e-05 -1.28623812654e-05 0.000185111534387
56 2 13.704282908 10.855582605 7.317244869 0.0 0.0 0.0 -5.88444394974e-05 3.78552816474e-06 0.000340007709419
57 1 2.518088606 4.36145465 1.351467896 0.0 0.0 0.0 3.22788408841e-05 -0.000253774114498 0.000133389107644
58 1 9.954897977 4.36145465 1.351467896 0.0 0.0 0.0 -3.00333549302e-05 -2.77983561213e-05 7.35776428491e-05
59 1 6.23649322 10.801919964 1.351467896 0.0 0.0 0.0 9.00052823963e-05 1.75168367871e-05 9.72521252778e-05
60 1 13.673302591 10.801919964 1.351467896 0.0 0.0 0.0 -0.000474684744632 0.000300367618298 0.000192755965433
61 1 2.518088649 4.361454643 8.288318036 0.0 0.0 0.0 -3.52579983564e-05 4.56796607396e-05 -7.64757681608e-05
62 1 9.95489802 4.361454643 8.288318036 0.0 0.0 0.0 -1.31358495172e-05 -2.53089779232e-05 -7.03933325422e-06
63 1 6.236493263 10.801919957 8.288318036 0.0 0.0 0.0 -7.15105706056e-05 -4.88238112203e-05 -4.68648820529e-05
64 1 13.673302635 10.801919957 8.288318036 0.0 0.0 0.0 5.97229595085e-05 -8.41030756318e-05 -0.000136811300483
65 1 16.959856167 3.613473172 0.07296928 0.0 0.0 0.0 -2.57799212278e-05 -0.000106690909125 0.000497384976511
66 1 9.523046796 3.613473172 0.07296928 0.0 0.0 0.0 -2.82658411407e-05 -6.19877779441e-05 0.000126731931586
67 1 20.678260782 10.053938486 0.07296928 0.0 0.0 0.0 -2.99504159316e-05 -5.82785756644e-05 0.000143706197994
68 1 13.24145141 10.053938486 0.07296928 0.0 0.0 0.0 6.45011475895e-06 -8.26486395522e-05 0.000497613534081
69 1 16.959856211 3.613473164 7.00981942 0.0 0.0 0.0 -2.8154068431e-05 -5.90087434975e-05 -9.68653040124e-05
70 1 9.523046839 3.613473164 7.00981942 0.0 0.0 0.0 -2.85831278602e-05 -6.08014427394e-05 -5.00197495384e-06
71 1 20.678260825 10.053938478 7.00981942 0.0 0.0 0.0 -2.80285273684e-05 -6.21672520291e-05 -1.26334224263e-05
72 1 13.241451453 10.053938478 7.00981942 0.0 0.0 0.0 -3.00961566664e-05 -6.08507120597e-05 -9.68517080684e-05
73 2 5.098138192 9.1e-08 3.848820961 0.0 0.0 0.0 0.000560722445555 -9.66993904277e-07 0.00119940171378
74 2 12.534947564 9.1e-08 3.848820961 0.0 0.0 0.0 -0.000117820609178 -9.69842441467e-07 6.71797120115e-05
75 2 8.816542806 6.440465404 3.848820961 0.0 0.0 0.0 -3.87869270162e-05 -4.76102799899e-05 5.33884320259e-05
76 2 16.253352178 6.440465404 3.848820961 0.0 0.0 0.0 -3.87931366892e-05 4.56934587914e-05 5.33957914391e-05
77 2 5.098138235 8.3e-08 10.785671101 0.0 0.0 0.0 -0.00159724503253 -9.6571023246e-07 0.00182404047998
78 2 12.534947607 8.3e-08 10.785671101 0.0 0.0 0.0 8.96716105884e-05 -9.65643243145e-07 -2.03895897705e-05
79 2 8.816542849 6.440465397 10.785671101 0.0 0.0 0.0 -2.01465804389e-05 5.58854509469e-05 -1.42840348688e-05
80 2 16.253352221 6.440465397 10.785671101 0.0 0.0 0.0 -2.0153067158e-05 -5.78157625193e-05 -1.4285246635e-05
81 1 12.472986142 12.880930033 4.819894401 0.0 0.0 0.0 -0.000115326824717 1.94565071499e-06 -0.000288941667019
82 1 19.909795513 12.880930033 4.819894401 0.0 0.0 0.0 -1.32201750416e-05 1.94569575652e-06 -3.13275090164e-05
83 1 8.754581528 6.440464719 4.819894401 0.0 0.0 0.0 -3.9458731203e-05 1.72379147322e-05 -2.173739958e-05
84 1 16.191390899 6.440464719 4.819894401 0.0 0.0 0.0 -3.94539719305e-05 -1.33511869326e-05 -2.17395153171e-05
85 1 12.472986185 12.880930026 11.756744541 0.0 0.0 0.0 0.0022063491925 1.94366054704e-06 -0.00117106663518
86 1 19.909795557 12.880930026 11.756744541 0.0 0.0 0.0 -9.79180804656e-05 1.94431475178e-06 9.61254430438e-05
87 1 8.754581571 6.440464712 11.756744541 0.0 0.0 0.0 -4.713425491e-05 -2.48707330961e-05 7.93327693127e-05
88 1 16.191390943 6.440464712 11.756744541 0.0 0.0 0.0 -4.71344192136e-05 2.8759044463e-05 7.93329906035e-05
89 1 4.172478132 1.2e-08 3.541396305 0.0 0.0 0.0 -0.000290199233371 -2.6685482262e-07 -0.00117025717548
90 1 11.609287504 1.2e-08 3.541396305 0.0 0.0 0.0 -5.7035774638e-05 -2.66285113917e-07 4.77797952162e-05
91 1 7.890882746 6.440465326 3.541396305 0.0 0.0 0.0 -6.45698993755e-05 6.71484302942e-06 4.65906146506e-05
92 1 15.327692118 6.440465326 3.541396305 0.0 0.0 0.0 -6.45685530697e-05 -7.25243307714e-06 4.65871772593e-05
93 1 4.172478175 5e-09 10.478246445 0.0 0.0 0.0 0.000162183296111 -2.68011057332e-07 -0.00118144147189
94 1 11.609287547 5e-09 10.478246445 0.0 0.0 0.0 -7.58675166923e-05 -2.68062286146e-07 4.82522566619e-05
95 1 7.890882789 6.440465319 10.478246445 0.0 0.0 0.0 -6.83086483792e-05 -7.27624581429e-06 4.70609378366e-05
96 1 15.327692161 6.440465319 10.478246445 0.0 0.0 0.0 -6.83065327606e-05 6.73945076049e-06 4.7061410855e-05
97 2 12.324550744 4.415115375 3.848820709 0.0 0.0 0.0 -1.70301764079e-05 -1.46802989749e-05 4.75198698425e-05
98 2 4.887741372 4.415115375 3.848820709 0.0 0.0 0.0 9.7744325938e-05 0.000232741187498 0.000169965148626
99 2 16.042955358 10.855580689 3.848820709 0.0 0.0 0.0 0.000151640699865 -8.16983277967e-05 8.60970561984e-05
100 2 8.606145986 10.855580689 3.848820709 0.0 0.0 0.0 -0.000347395003778 -0.000298225812112 0.000390518579875
101 2 12.324550787 4.415115367 10.785670849 0.0 0.0 0.0 4.90827901466e-05 -3.62076146782e-05 -1.25896098813e-05
102 2 4.887741415 4.415115367 10.785670849 0.0 0.0 0.0 -0.00010894489895 -0.000375060699689 4.91121529359e-05
103 2 16.042955401 10.855580681 10.785670849 0.0 0.0 0.0 -0.000154388468008 4.59543030086e-05 2.0065308275e-06
104 2 8.606146029 10.855580681 10.785670849 0.0 0.0 0.0 0.000689563646041 0.000585057162596 0.000332915346305
105 1 12.355530592 4.361455296 4.81989398 0.0 0.0 0.0 3.14524673631e-05 -3.50759047458e-05 -8.48096750325e-06
106 1 4.91872122 4.361455296 4.81989398 0.0 0.0 0.0 4.24400484509e-06 -9.85039908138e-05 -7.42995609463e-05
107 1 16.073935206 10.801920609 4.81989398 0.0 0.0 0.0 -2.10966889312e-05 -1.58976045227e-05 -3.86880376885e-05
108 1 8.637125834 10.801920609 4.81989398 0.0 0.0 0.0 0.000100373671071 2.28157185648e-05 -0.000155138239507
109 1 12.355530635 4.361455288 11.75674412 0.0 0.0 0.0 9.80670001587e-06 -3.0662529342e-05 7.66411900604e-05
110 1 4.918721263 4.361455288 11.75674412 0.0 0.0 0.0 8.50834958103e-05 0.000157600474435 0.000127100562527
111 1 16.073935249 10.801920602 11.75674412 0.0 0.0 0.0 0.000111502767247 -6.90835404445e-05 9.95270578028e-05
112 1 8.637125877 10.801920602 11.75674412 0.0 0.0 0.0 -0.000546563357534 -0.000488963920678 0.000141283315358
113 1 12.787381758 3.613470486 3.541396271 0.0 0.0 0.0 6.60041282922e-05 -7.48898834438e-05 4.45188266938e-05
114 1 5.350572387 3.613470486 3.541396271 0.0 0.0 0.0 -8.32624309718e-05 -0.000254832491734 -4.42105440528e-05
115 1 16.505786372 10.0539358 3.541396271 0.0 0.0 0.0 -1.13899831882e-05 -3.11496365131e-05 4.90713666678e-05
116 1 9.068977001 10.0539358 3.541396271 0.0 0.0 0.0 0.000184492970204 0.000174156743245 -9.24234571697e-05
117 1 12.787381802 3.613470479 10.478246411 0.0 0.0 0.0 -1.10222566717e-05 -3.03385143131e-05 4.95659196304e-05
118 1 5.35057243 3.613470479 10.478246411 0.0 0.0 0.0 0.000147394925044 0.000144655827773 -4.33538164671e-05
119 1 16.505786416 10.053935793 10.478246411 0.0 0.0 0.0 6.57187815588e-05 -7.55827748665e-05 4.49913276406e-05
120 1 9.068977044 10.053935793 10.478246411 0.0 0.0 0.0 -9.16970189382e-05 -0.000304351151344 -9.17210005331e-05
121 2 16.042954883 2.025349614 3.848821218 0.0 0.0 0.0 -0.000346293959314 0.000298765742443 0.00039043076155
122 2 8.606145512 2.025349614 3.848821218 0.0 0.0 0.0 0.000152754291302 8.22510462221e-05 8.6001244844e-05
123 2 19.761359497 8.465814928 3.848821218 0.0 0.0 0.0 -1.59120695771e-05 1.52429402647e-05 4.74310996762e-05
124 2 12.324550126 8.465814928 3.848821218 0.0 0.0 0.0 9.88450655205e-05 -0.000232199538604 0.000169883061252
125 2 16.042954927 2.025349607 10.785671358 0.0 0.0 0.0 0.000690661982765 -0.000584495625625 0.000332833788328
126 2 8.606145555 2.025349607 10.785671358 0.0 0.0 0.0 -0.000153270007427 -4.53741644106e-05 1.92278086347e-06
127 2 19.761359541 8.46581492 10.785671358 0.0 0.0 0.0 5.02171086119e-05 3.68262730164e-05 -1.26834508325e-05
128 2 12.324550169 8.46581492 10.785671358 0.0 0.0 0.0 -0.000107807042463 0.000375686872957 4.90255223989e-05
129 1 16.07393341 2.079010738 4.819894452 0.0 0.0 0.0 0.000105174593076 -2.58102775473e-05 -0.000155023292379
130 1 8.637124038 2.079010738 4.819894452 0.0 0.0 0.0 -1.62934997975e-05 1.29036788133e-05 -3.85717440376e-05
131 1 19.792338024 8.519476052 4.819894452 0.0 0.0 0.0 3.62512748852e-05 3.20749135559e-05 -8.36765461867e-06
132 1 12.355528653 8.519476052 4.819894452 0.0 0.0 0.0 9.04346599195e-06 9.55036118221e-05 -7.41867598866e-05
133 1 16.073933453 2.079010731 11.756744592 0.0 0.0 0.0 -0.000541760176457 0.000485964016336 0.000141395410481
134 1 8.637124082 2.079010731 11.756744592 0.0 0.0 0.0 0.000116301727643 6.60828564856e-05 9.96371900727e-05
135 1 19.792338067 8.519476045 11.756744592 0.0 0.0 0.0 1.46063095724e-05 2.76580341436e-05 7.67519855759e-05
136 1 12.355528696 8.519476045 11.756744592 0.0 0.0 0.0 8.9880372176e-05 -0.000160607373362 0.000127209172265
137 1 1.632167798 2.826994038 3.541396624 0.0 0.0 0.0 0.000182622798636 -0.000172027386869 -9.23162237345e-05
138 1 9.06897717 2.826994038 3.541396624 0.0 0.0 0.0 -1.32703216775e-05 3.32650018573e-05 4.91852592176e-05
139 1 5.350572412 9.267459352 3.541396624 0.0 0.0 0.0 6.41236553313e-05 7.70035637669e-05 4.46271925286e-05
140 1 12.787381784 9.267459352 3.541396624 0.0 0.0 0.0 -8.51326361081e-05 0.000256962429765 -4.41076513556e-05
141 1 1.632167841 2.826994031 10.478246764 0.0 0.0 0.0 -9.3570431418e-05 0.000306467918302 -9.16129957045e-05
142 1 9.068977213 2.826994031 10.478246764 0.0 0.0 0.0 6.38343102053e-05 7.76833271313e-05 4.51029561501e-05
143 1 5.350572456 9.267459345 10.478246764 0.0 0.0 0.0 -1.29219711689e-05 3.24095634914e-05 4.9685770638e-05
144 1 12.787381827 9.267459345 10.478246764 0.0 0.0 0.0 0.000145493801518 -0.000142586004686 -4.32359812368e-05
145 2 12.258736453 12.880930313 6.469757221 0.0 0.0 0.0 -2.25548369962e-05 -7.04697315975e-07 0.000496399436443
146 2 19.695545825 12.880930313 6.469757221 0.0 0.0 0.0 -4.96724989005e-05 -7.24745285766e-07 9.42704557717e-05
147 2 8.540331839 6.440464999 6.469757221 0.0 0.0 0.0 -4.53656344105e-05 -4.37594948216e-06 7.72774943584e-05
148 2 15.97714121 6.440464999 6.469757221 0.0 0.0 0.0 -4.5327371094e-05 2.9615311501e-06 7.72920437391e-05
149 2 12.258736496 12.880930306 13.40660736 0.0 0.0 0.0 -0.00791426217721 -7.04346637336e-07 -0.00888400488641
150 2 19.695545868 12.880930306 13.40660736 0.0 0.0 0.0 -4.48813616446e-05 -7.01986844872e-07 -0.00023736076629
151 2 8.540331882 6.440464992 13.40660736 0.0 0.0 0.0 -4.23360005359e-05 6.74475437657e-06 -0.000201205063651
152 2 15.977141254 6.440464992 13.40660736 0.0 0.0 0.0 -4.23414492604e-05 -8.20491345611e-06 -0.000201204987648
153 1 5.331166141 0.766954845 6.788243965 0.0 0.0 0.0 -6.01048525576e-05 1.42292041017e-05 -0.000257828821171
154 1 12.767975512 0.766954845 6.788243965 0.0 0.0 0.0 -6.35517053634e-05 1.75502299265e-05 -0.000104223370359
155 1 9.049570755 7.207420159 6.788243965 0.0 0.0 0.0 -6.0359151989e-05 1.70563495782e-05 -0.000103282308803
156 1 16.486380127 7.207420159 6.788243965 0.0 0.0 0.0 -6.18623172051e-05 1.81914568928e-05 -8.05522888157e-05
157 1 5.331166184 0.766954838 13.725094105 0.0 0.0 0.0 -0.000709186644225 0.000363349718718 0.00182565786551
158 1 12.767975556 0.766954838 13.725094105 0.0 0.0 0.0 -4.61943317314e-05 1.39693600107e-05 8.85180948076e-05
159 1 9.049570798 7.207420151 13.725094105 0.0 0.0 0.0 -6.3364739138e-05 1.72812945955e-05 8.85765265036e-05
160 1 16.48638017 7.207420151 13.725094105 0.0 0.0 0.0 -6.01343365027e-05 1.51075425971e-05 4.05922791701e-05
161 1 16.486380702 5.673510068 6.788243516 0.0 0.0 0.0 -6.04896215815e-05 -1.71769758424e-05 -0.000100729794923
162 1 9.04957133 5.673510068 6.788243516 0.0 0.0 0.0 -6.19594621449e-05 -1.83371325664e-05 -7.79827675221e-05
163 1 20.204785316 12.113975382 6.788243516 0.0 0.0 0.0 -6.36766994841e-05 -1.76667869298e-05 -0.000101668434098
164 1 12.767975944 12.113975382 6.788243516 0.0 0.0 0.0 -6.02175415116e-05 -1.43629613914e-05 -0.000255266613694
165 1 16.486380745 5.673510061 13.725093655 0.0 0.0 0.0 -6.34883558517e-05 -1.73973345343e-05 9.11337316767e-05
166 1 9.049571373 5.673510061 13.725093655 0.0 0.0 0.0 -6.02573142638e-05 -1.52227426439e-05 4.31487892227e-05
167 1 20.204785359 12.113975375 13.725093655 0.0 0.0 0.0 -4.63021379441e-05 -1.41113457649e-05 9.10851510146e-05
168 1 12.767975987 12.113975375 13.725093655 0.0 0.0 0.0 -0.000709293249203 -0.00036349041446 0.00182822077804
169 2 12.462655523 4.175912014 6.46975888 0.0 0.0 0.0 1.53205371979e-05 -4.17444009229e-05 5.38701028099e-05
170 2 5.025846151 4.175912014 6.46975888 0.0 0.0 0.0 2.3283431444e-05 -1.70155309833e-05 0.000178105061064
171 2 16.181060137 10.616377328 6.46975888 0.0 0.0 0.0 3.41189116903e-05 -4.8074549103e-05 0.000108214906402
172 2 8.744250765 10.616377328 6.46975888 0.0 0.0 0.0 -1.01426983646e-05 -5.77701864599e-05 0.000300762425474
173 2 12.462655566 4.175912007 13.406609019 0.0 0.0 0.0 2.00234101089e-05 -3.96786779314e-05 -0.000178829817368
174 2 5.025846194 4.175912007 13.406609019 0.0 0.0 0.0 -1.45929424549e-05 -0.000149321640268 -0.000510878970324
175 2 16.18106018 10.616377321 13.406609019 0.0 0.0 0.0 -2.56211165231e-05 -2.36235594896e-05 -0.000287253089471
176 2 8.744250808 10.616377321 13.406609019 0.0 0.0 0.0 0.00029555578507 -5.61315246691e-05 -0.00157808453169
177 1 4.107023344 4.233448053 6.788243333 0.0 0.0 0.0 1.65544403826e-05 -6.15433007902e-05 -0.000150701187853
178 1 11.543832716 4.233448053 6.788243333 0.0 0.0 0.0 1.29671704004e-05 -6.07100452817e-05 -6.98969669432e-05
179 1 7.825427958 10.673913367 6.788243333 0.0 0.0 0.0 1.27148324745e-05 -6.5134950315e-05 -0.00014810601386
180 1 15.26223733 10.673913367 6.788243333 0.0 0.0 0.0 1.24844096146e-05 -5.98630019187e-05 -0.000132443800255
181 1 4.107023387 4.233448046 13.725093473 0.0 0.0 0.0 6.06288008324e-06 -4.9572989588e-05 0.000286984920354
182 1 11.543832759 4.233448046 13.725093473 0.0 0.0 0.0 1.64304282746e-05 -6.23306136311e-05 3.47821909797e-05
183 1 7.825428001 10.67391336 13.725093473 0.0 0.0 0.0 0.00010417847992 1.21663586465e-05 0.000208375832013
184 1 15.262237373 10.67391336 13.725093473 0.0 0.0 0.0 2.69644566639e-05 -6.89732314843e-05 0.000187841475466
185 1 12.872237203 5.00040447 6.78824545 0.0 0.0 0.0 4.66894052613e-05 -4.92373626321e-05 -8.63345119877e-05
186 1 5.435427832 5.00040447 6.78824545 0.0 0.0 0.0 4.78010406456e-05 -4.97253265753e-05 -0.000108120536327
187 1 16.590641818 11.440869783 6.78824545 0.0 0.0 0.0 4.61025023107e-05 -5.07933994835e-05 -0.000103757334388
188 1 9.153832446 11.440869783 6.78824545 0.0 0.0 0.0 5.05369245238e-05 -5.26904425128e-05 -0.000268200166867
189 1 12.872237247 5.000404462 13.72509559 0.0 0.0 0.0 4.84886801287e-05 -5.28769522409e-05 3.79531849502e-05
190 1 5.435427875 5.000404462 13.72509559 0.0 0.0 0.0 4.41784787458e-05 -5.86455500281e-05 7.73348718897e-05
191 1 16.590641861 11.440869776 13.72509559 0.0 0.0 0.0 4.98819990686e-05 -4.96729120825e-05 7.32144145614e-05
192 1 9.153832489 11.440869776 13.72509559 0.0 0.0 0.0 0.000154648588429 0.00104956080959 0.00268646534058
193 2 1.307441393 2.264553585 6.469759523 0.0 0.0 0.0 -1.23889176955e-05 5.91370191323e-05 0.000300698054323
194 2 8.744250764 2.264553585 6.469759523 0.0 0.0 0.0 3.19337522128e-05 4.94361260678e-05 0.000108140292526
195 2 5.025846007 8.705018899 6.469759523 0.0 0.0 0.0 1.30817956612e-05 4.3144594982e-05 5.3798627535e-05
196 2 12.462655379 8.705018899 6.469759523 0.0 0.0 0.0 2.10319480752e-05 1.84216598008e-05 0.000178027910769
197 2 1.307441436 2.264553578 13.406609663 0.0 0.0 0.0 0.000293315880577 5.75133904078e-05 -0.00157816742666
198 2 8.744250808 2.264553578 13.406609663 0.0 0.0 0.0 -2.78652974938e-05 2.50039751695e-05 -0.00028733476992
199 2 5.02584605 8.705018892 13.406609663 0.0 0.0 0.0 1.77982921485e-05 4.10247457517e-05 -0.000178902336333
200 2 12.462655422 8.705018892 13.406609663 0.0 0.0 0.0 -1.68237619308e-05 0.00015067397132 -0.00051095133954
201 1 1.717022388 1.440060952 6.788246651 0.0 0.0 0.0 5.10392673933e-05 5.449878192e-05 -0.000271526475817
202 1 9.15383176 1.440060952 6.788246651 0.0 0.0 0.0 4.65940972912e-05 5.26154967605e-05 -0.000107088450901
203 1 5.435427002 7.880526266 6.788246651 0.0 0.0 0.0 4.71925660378e-05 5.10277173876e-05 -8.96542918795e-05
204 1 12.872236374 7.880526266 6.788246651 0.0 0.0 0.0 4.83154742569e-05 5.15036189626e-05 -0.000111435952919
205 1 1.717022431 1.440060945 13.725096791 0.0 0.0 0.0 0.00015516370975 -0.00104776710645 0.00268313901154
206 1 9.153831803 1.440060945 13.725096791 0.0 0.0 0.0 5.03910911574e-05 5.14697598115e-05 6.98939110286e-05
207 1 5.435427045 7.880526258 13.725096791 0.0 0.0 0.0 4.89858368338e-05 5.47043839132e-05 3.46215814511e-05
208 1 12.872236417 7.880526258 13.725096791 0.0 0.0 0.0 4.46740528808e-05 6.04713355513e-05 7.4004497312e-05
209 1 15.262237079 2.207018097 6.788243067 0.0 0.0 0.0 1.06722904105e-05 6.32929998173e-05 -0.000144406724725
210 1 7.825427708 2.207018097 6.788243067 0.0 0.0 0.0 1.04034388832e-05 5.80158733363e-05 -0.000128729343606
211 1 18.980641693 8.647483411 6.788243067 0.0 0.0 0.0 1.09241688029e-05 5.88625355674e-05 -6.61950441325e-05
212 1 11.543832322 8.647483411 6.788243067 0.0 0.0 0.0 1.45106280846e-05 5.96985364503e-05 -0.000146999783433
213 1 15.262237122 2.207018089 13.725093207 0.0 0.0 0.0 0.000102124275355 -1.40083723171e-05 0.000212081516577
214 1 7.825427751 2.207018089 13.725093207 0.0 0.0 0.0 2.49125223986e-05 6.71309332149e-05 0.000191546106941
215 1 18.980641736 8.647483403 13.725093207 0.0 0.0 0.0 1.43768372955e-05 6.04895076359e-05 3.84876567656e-05
216 1 11.543832365 8.647483403 13.725093207 0.0 0.0 0.0 4.01080013448e-06 4.77310369823e-05 0.000290689878142
217 2 10.05169036 12.880930562 3.001331049 0.0 0.0 0.0 -0.00149065918574 1.18476356676e-06 0.00189573217402
218 2 17.488499731 12.880930562 3.001331049 0.0 0.0 0.0 0.00013782148062 1.20118719552e-06 -4.5170296205e-05
219 2 6.333285745 6.440465248 3.001331049 0.0 0.0 0.0 5.77487519427e-05 4.46447668639e-05 -4.7039647822e-05
220 2 13.770095117 6.440465248 3.001331049 0.0 0.0 0.0 5.77494089005e-05 -4.22223489828e-05 -4.70404104843e-05
221 2 10.051690403 12.880930555 9.938181189 0.0 0.0 0.0 0.000621090679641 1.17774861782e-06 0.00153731069665
222 2 17.488499774 12.880930555 9.938181189 0.0 0.0 0.0 -2.70556603356e-05 1.18095080306e-06 -5.76049129534e-06
223 2 6.333285789 6.440465241 9.938181189 0.0 0.0 0.0 4.23336675189e-05 -3.68618374513e-05 -1.23152139413e-05
224 2 13.77009516 6.440465241 9.938181189 0.0 0.0 0.0 4.2372067555e-05 3.92135426643e-05 -1.23315490015e-05
225 1 13.26085702 5.67351034 3.319819519 0.0 0.0 0.0 7.30879778253e-05 -1.48505165775e-05 -3.55661933368e-05
226 1 5.824047648 5.67351034 3.319819519 0.0 0.0 0.0 3.55771973674e-05 -8.32514602441e-05 -4.31504514235e-05
227 1 16.979261634 12.113975653 3.319819519 0.0 0.0 0.0 -1.9791182581e-06 -5.16695388935e-06 -4.16798468197e-05
228 1 9.542452262 12.113975653 3.319819519 0.0 0.0 0.0 0.000497159074834 0.000230531309812 -0.000456413492123
229 1 13.260857063 5.673510332 10.256669659 0.0 0.0 0.0 4.94472301729e-05 -1.95441093611e-05 -3.20438818102e-05
230 1 5.824047691 5.673510332 10.256669659 0.0 0.0 0.0 8.61929568069e-05 4.57899630149e-05 -4.33285865769e-05
231 1 16.979261677 12.113975646 10.256669659 0.0 0.0 0.0 0.00012177836479 -2.90094441012e-05 -4.17908807455e-05
232 1 9.542452305 12.113975646 10.256669659 0.0 0.0 0.0 -0.000374212616356 -0.000318207444521 -0.000670872858975
233 1 2.105642892 0.766955018 3.319818703 0.0 0.0 0.0 0.000496315476363 -0.000230485476725 -0.000452433880693
234 1 9.542452263 0.766955018 3.319818703 0.0 0.0 0.0 -2.8106424745e-06 5.19711109451e-06 -3.77064430019e-05
235 1 5.824047506 7.207420332 3.319818703 0.0 0.0 0.0 7.22598237129e-05 1.48700205615e-05 -3.15972688279e-05
236 1 13.260856878 7.207420332 3.319818703 0.0 0.0 0.0 3.47489766124e-05 8.32710067041e-05 -3.91816966124e-05
237 1 2.105642935 0.766955011 10.256668843 0.0 0.0 0.0 -0.000375056993049 0.000318255580179 -0.000666892001914
238 1 9.542452307 0.766955011 10.256668843 0.0 0.0 0.0 0.000120933445708 2.90564652761e-05 -3.78112752477e-05
239 1 5.824047549 7.207420325 10.256668843 0.0 0.0 0.0 4.86172645177e-05 1.95800323108e-05 -2.80710822308e-05
240 1 13.260856921 7.207420325 10.256668843 0.0 0.0 0.0 8.53302038501e-05 -4.57286455426e-05 -3.93392778077e-05
241 2 13.566178647 2.264553318 3.001331607 0.0 0.0 0.0 -0.000208092977828 0.000114930319461 -1.92132225694e-05
242 2 6.129369276 2.264553318 3.001331607 0.0 0.0 0.0 0.000515874360891 0.000456910077194 0.00020452804317
243 2 17.284583261 8.705018632 3.001331607 0.0 0.0 0.0 4.19835188718e-06 3.45145883686e-05 -5.3805078259e-05
244 2 9.84777389 8.705018632 3.001331607 0.0 0.0 0.0 -0.000120426298914 -0.000326003664064 4.19375126918e-05
245 2 13.56617869 2.26455331 9.938181747 0.0 0.0 0.0 0.000158622962856 -3.81636696026e-05 2.27163567455e-05
246 2 6.129369319 2.26455331 9.938181747 0.0 0.0 0.0 -0.00039939157621 -0.000246783742394 0.000269077096637
247 2 17.284583305 8.705018624 9.938181747 0.0 0.0 0.0 -4.72429688482e-05 4.63459331105e-05 -2.49032773474e-05
248 2 9.847773933 8.705018624 9.938181747 0.0 0.0 0.0 4.92014582062e-05 0.00034370841377 0.000104665465675
249 1 14.485000752 2.20701716 3.319818255 0.0 0.0 0.0 0.00013293649393 -1.29297492619e-05 -8.45313862487e-05
250 1 7.048191381 2.20701716 3.319818255 0.0 0.0 0.0 -0.000156556798402 -7.63634991605e-06 -7.01084889541e-05
251 1 18.203405367 8.647482473 3.319818255 0.0 0.0 0.0 -1.49722293657e-05 5.9248486172e-05 -2.98747330679e-05
252 1 10.766595995 8.647482473 3.319818255 0.0 0.0 0.0 -1.82164298573e-05 0.000265385151758 -0.000106029268426
253 1 14.485000796 2.207017152 10.256668395 0.0 0.0 0.0 -0.00017954126063 0.000152418406276 -8.42377655416e-05
254 1 7.048191424 2.207017152 10.256668395 0.0 0.0 0.0 0.000131392687283 0.000138080797117 -7.24821943803e-05
255 1 18.20340541 8.647482466 10.256668395 0.0 0.0 0.0 -1.68649964839e-05 6.22525633721e-05 -2.71140286988e-05
256 1 10.766596038 8.647482466 10.256668395 0.0 0.0 0.0 -1.14205086882e-05 -0.000138979451242 -0.000102749823232
257 1 5.719786092 1.440061854 3.319818129 0.0 0.0 0.0 -0.000456598299246 -0.00020210849172 -0.000406902678259
258 1 13.156595464 1.440061854 3.319818129 0.0 0.0 0.0 2.78606721782e-05 3.07707248388e-05 -4.41792960824e-05
259 1 9.438190706 7.880527168 3.319818129 0.0 0.0 0.0 -1.77261267078e-05 0.000116498687516 -4.25306788705e-05
260 1 16.875000078 7.880527168 3.319818129 0.0 0.0 0.0 -5.53458010038e-05 3.90065855766e-05 -2.84084222456e-05
261 1 5.719786135 1.440061847 10.256668269 0.0 0.0 0.0 0.000312934729206 0.000254511521258 -0.000365849828748
262 1 13.156595507 1.440061847 10.256668269 0.0 0.0 0.0 -0.000129452950494 6.21676508333e-05 -3.60022619077e-05
263 1 9.438190749 7.880527161 10.256668269 0.0 0.0 0.0 -7.2321756238e-05 -3.78180866753e-05 -3.63186315238e-05
264 1 16.875000121 7.880527161 10.256668269 0.0 0.0 0.0 -3.35389795229e-05 4.97826603943e-05 -2.71641526417e-05
265 2 2.410964342 4.175911908 3.001332195 0.0 0.0 0.0 -0.000118668384553 0.00032469868257 4.10497695003e-05
266 2 9.847773713 4.175911908 3.001332195 0.0 0.0 0.0 5.94937541693e-06 -3.5807469393e-05 -5.46862770734e-05
267 2 6.129368956 10.616377222 3.001332195 0.0 0.0 0.0 -0.000206312127062 -0.000116209432785 -2.00750914949e-05
268 2 13.566178327 10.616377222 3.001332195 0.0 0.0 0.0 0.000517674142726 -0.000458196479934 0.000203661983868
269 2 2.410964385 4.175911901 9.938182334 0.0 0.0 0.0 5.09975783977e-05 -0.000344964890772 0.000103819411507
270 2 9.847773757 4.175911901 9.938182334 0.0 0.0 0.0 -4.54987313948e-05 -4.75946222699e-05 -2.57564643181e-05
271 2 6.129368999 10.616377215 9.938182334 0.0 0.0 0.0 0.000160372641611 3.68777566471e-05 2.18502851863e-05
272 2 13.566178371 10.616377215 9.938182334 0.0 0.0 0.0 -0.000397633862614 0.000245498969519 0.000268214131825