ITEM: TIMESTEP
0
ITEM: NUMBER OF ATOMS
288
ITEM: BOX BOUNDS xy xz yz xx yy zz
0.0 14.873618743 7.436809228
0.0 12.880930628 8.6e-08
0.0 13.87370028 -1.5e-08
ITEM: ATOMS id type x y z vx vy vz fx fy fz
1 2 2.338671397 1.12e-07 0.380392751 0.0 0.0 0.0 0.0342340886159 0.0181647769497 0.0324408463458
2 2 9.775480768 1.12e-07 0.380392751 0.0 0.0 0.0 -0.000194720394993 8.63585181422e-05 1.30638792977e-05
3 2 6.057076011 6.440465426 0.380392751 0.0 0.0 0.0 -0.000194390311096 -0.000386063209625 1.33024737066e-05
4 2 13.493885382 6.440465426 0.380392751 0.0 0.0 0.0 0.000214413528316 -0.000150099392201 1.67065504625e-05
5 2 2.33867144 1.04e-07 7.317242891 0.0 0.0 0.0 0.000141847927474 0.000196580092268 1.36088091952e-05
6 2 9.775480812 1.04e-07 7.317242891 0.0 0.0 0.0 -4.55673447297e-05 3.61028346406e-05 1.76374959396e-05
7 2 6.057076054 6.440465418 7.317242891 0.0 0.0 0.0 -4.55382310772e-05 -0.00012817354524 1.75050632164e-05
8 2 13.493885426 6.440465418 7.317242891 0.0 0.0 0.0 9.65880657324e-05 -4.60944157615e-05 1.56624691276e-05
9 1 2.405632363 0.008660715 1.351465958 0.0 0.0 0.0 -0.0309538438599 -0.0238480368136 -0.0132421909254
10 1 9.837441735 4.61e-07 1.351465958 0.0 0.0 0.0 0.000163857100012 -4.7999331487e-05 3.77327426708e-05
11 1 6.119036977 6.440465774 1.351465958 0.0 0.0 0.0 0.000163996804699 0.000210451456995 3.77753583025e-05
12 1 13.555846349 6.440465774 1.351465958 0.0 0.0 0.0 -5.99775426744e-05 8.11329169349e-05 3.91299711589e-05
13 1 2.400632406 4.53e-07 8.288316098 0.0 0.0 0.0 1.65278951642e-06 -7.05554023036e-05 3.75141972923e-05
14 1 9.837441778 4.53e-07 8.288316098 0.0 0.0 0.0 7.28657138549e-05 -1.74850187904e-05 3.91628897166e-05
15 1 6.11903702 6.440465767 8.288316098 0.0 0.0 0.0 7.28790291565e-05 5.2731279203e-05 3.91409635235e-05
16 1 13.555846392 6.440465767 8.288316098 0.0 0.0 0.0 1.20304610391e-05 1.75992187697e-05 3.83998295739e-05
17 1 10.701141082 12.880930558 0.072968506 0.0 0.0 0.0 -0.00635901109684 -0.00132453209352 -0.01884062505
18 1 18.137950453 12.880930558 0.072968506 0.0 0.0 0.0 0.000175076989728 -5.07120431951e-05 7.72365225186e-05
19 1 6.982736468 6.440465244 0.072968506 0.0 0.0 0.0 0.000153269206767 0.000180120662121 7.52145181932e-05
20 1 14.419545839 6.440465244 0.072968506 0.0 0.0 0.0 -1.99657883223e-05 8.0472890905e-05 4.02778260677e-05
21 1 10.701141125 12.880930551 7.009818646 0.0 0.0 0.0 1.19139338879e-06 -0.000117401810285 9.13030905393e-05
22 1 18.137950497 12.880930551 7.009818646 0.0 0.0 0.0 0.00010177318163 -2.21418767037e-05 4.29860271967e-05
23 1 6.982736511 6.440465237 7.009818646 0.0 0.0 0.0 9.89716968284e-05 7.14539787228e-05 4.358215026e-05
24 1 14.419545882 6.440465237 7.009818646 0.0 0.0 0.0 2.6496295868e-05 2.96315630222e-05 6.38322614988e-05
25 2 13.704282012 2.025348059 0.380394512 0.0 0.0 0.0 0.000246901519678 0.000443724565667 1.14082133863e-05
26 2 6.26747264 2.025348059 0.380394512 0.0 0.0 0.0 -0.000880558726307 -0.000207609722951 0.00036126362641
27 2 17.422686626 8.465813373 0.380394512 0.0 0.0 0.0 -0.000101683236269 -0.000115221388347 7.31740641258e-06
28 2 9.985877254 8.465813373 0.380394512 0.0 0.0 0.0 0.000244756391051 -0.000873998408702 -0.000362471794754
29 2 13.704282055 2.025348052 7.317244652 0.0 0.0 0.0 3.34192514455e-05 0.000107169304076 8.53209540908e-06
30 2 6.267472684 2.025348052 7.317244652 0.0 0.0 0.0 -8.79042230208e-05 3.71432864275e-05 -7.69397539099e-05
31 2 17.422686669 8.465813365 7.317244652 0.0 0.0 0.0 -4.92156647536e-05 -2.95194139589e-05 9.65574361744e-06
32 2 9.985877298 8.465813365 7.317244652 0.0 0.0 0.0 3.33459151742e-05 -2.69570326012e-05 9.67549969766e-05
33 1 13.673300338 2.079010187 1.351467718 0.0 0.0 0.0 -0.000168718768906 -0.000242583302627 3.31782248617e-05
34 1 6.236490966 2.079010187 1.351467718 0.0 0.0 0.0 0.000546674836309 0.000175538102462 2.81598642727e-05
35 1 17.391704952 8.519475501 1.351467718 0.0 0.0 0.0 3.27093214329e-05 0.00011032476409 3.14706970646e-05
36 1 9.95489558 8.519475501 1.351467718 0.0 0.0 0.0 -0.000164711445945 0.000584576170011 2.81728411669e-05
37 1 13.673300381 2.07901018 8.288317858 0.0 0.0 0.0 -3.34978654699e-05 -5.21404502764e-06 3.15921469183e-05
38 1 6.236491009 2.07901018 8.288317858 0.0 0.0 0.0 1.09444132533e-05 2.05161662985e-05 3.21672993126e-05
39 1 17.391704995 8.519475493 8.288317858 0.0 0.0 0.0 9.61348222403e-07 5.48762756777e-05 3.20669272679e-05
40 1 9.954895623 8.519475493 8.288317858 0.0 0.0 0.0 -3.34325626927e-05 4.65226692996e-05 3.21685472162e-05
41 1 13.241451457 2.826992613 0.072968839 0.0 0.0 0.0 -0.000121165901742 2.36195477216e-05 3.8217164328e-05
42 1 5.804642085 2.826992613 0.072968839 0.0 0.0 0.0 0.000277995392575 0.000294977300654 -0.000168723279925
43 1 16.959856071 9.267457927 0.072968839 0.0 0.0 0.0 1.03341331345e-05 8.23970287034e-05 5.88123808958e-05
44 1 9.523046699 9.267457927 0.072968839 0.0 0.0 0.0 -0.000125436715998 0.000680253228488 0.000562766569215
45 1 13.2414515 2.826992606 7.009818978 0.0 0.0 0.0 -5.74006912884e-05 4.03075672737e-05 6.01527842813e-05
46 1 5.804642128 2.826992606 7.009818978 0.0 0.0 0.0 1.42824222563e-05 8.43959941778e-05 0.000123787363808
47 1 16.959856114 9.26745792 7.009818978 0.0 0.0 0.0 -1.14500991491e-05 7.30325522705e-05 5.14463412941e-05
48 1 9.523046743 9.26745792 7.009818978 0.0 0.0 0.0 -5.79251255449e-05 7.85430218104e-05 -3.54716676514e-05
49 2 17.422687622 4.415117298 0.380394729 0.0 0.0 0.0 0.000177273686703 -0.000977090776845 0.000389920926488
50 2 9.985878251 4.415117298 0.380394729 0.0 0.0 0.0 -8.60775903589e-05 -0.000161335613908 8.25151795186e-06
51 2 21.141092236 10.855582612 0.380394729 0.0 0.0 0.0 -0.000985805467207 -0.000329645846084 -0.000394285748433
52 2 13.704282865 10.855582612 0.380394729 0.0 0.0 0.0 0.000179145435414 0.000343097904514 1.23090225019e-05
53 2 17.422687665 4.415117291 7.317244869 0.0 0.0 0.0 2.60053715816e-05 -8.73978900247e-05 -7.92134489124e-05
54 2 9.985878294 4.415117291 7.317244869 0.0 0.0 0.0 -4.40880086507e-05 -8.27027987095e-05 1.06465960942e-05
55 2 21.14109228 10.855582605 7.317244869 0.0 0.0 0.0 -8.35952226719e-05 -1.74361148366e-05 0.000101214096333
56 2 13.704282908 10.855582605 7.317244869 0.0 0.0 0.0 2.60402544101e-05 4.58648254673e-05 9.434395061e-06
57 1 2.518088606 4.36145465 1.351467896 0.0 0.0 0.0 -0.000116089307121 0.000566252114692 3.77394957993e-05
58 1 9.954897977 4.36145465 1.351467896 0.0 0.0 0.0 1.45572595209e-05 4.80577495337e-05 3.31074202996e-05
59 1 6.23649322 10.801919964 1.351467896 0.0 0.0 0.0 0.000650156725188 0.000182427148196 3.24406764556e-05
60 1 13.673302591 10.801919964 1.351467896 0.0 0.0 0.0 -0.000116254726528 -0.000255576742535 3.21199396539e-05
61 1 2.518088649 4.361454643 8.288318036 0.0 0.0 0.0 -3.45008315548e-05 -5.39538278456e-06 3.27520944581e-05
62 1 9.95489802 4.361454643 8.288318036 0.0 0.0 0.0 -8.36647384581e-06 -1.83521718044e-06 3.31190662538e-05
63 1 6.236493263 10.801919957 8.288318036 0.0 0.0 0.0 1.84169836615e-06 -3.57304235384e-05 3.33626921072e-05
64 1 13.673302635 10.801919957 8.288318036 0.0 0.0 0.0 -3.45028974569e-05 -5.66456567632e-05 3.33973272399e-05
65 1 16.959856167 3.613473172 0.07296928 0.0 0.0 0.0 -0.000317644885706 0.000451744931527 -0.000401033901211
66 1 9.523046796 3.613473172 0.07296928 0.0 0.0 0.0 4.52475875184e-05 -2.10229351443e-05 4.50991925044e-05
67 1 20.678260782 10.053938486 0.07296928 0.0 0.0 0.0 0.000178903517723 7.46618823182e-05 0.000164481209783
68 1 13.24145141 10.053938486 0.07296928 0.0 0.0 0.0 -0.000226724110705 -0.00011805445208 0.000107643036816
69 1 16.959856211 3.613473164 7.00981942 0.0 0.0 0.0 -7.54509781284e-05 -5.46745163523e-05 0.000133414296125
70 1 9.523046839 3.613473164 7.00981942 0.0 0.0 0.0 3.27882635108e-06 -4.14700820273e-05 6.09019489729e-05
71 1 20.678260825 10.053938478 7.00981942 0.0 0.0 0.0 2.46328468054e-05 -3.48338774632e-05 2.84031564679e-06
72 1 13.241451453 10.053938478 7.00981942 0.0 0.0 0.0 -7.18305051312e-05 -8.77650831654e-05 3.87361646957e-05
73 2 5.098138192 9.1e-08 3.848820961 0.0 0.0 0.0 -0.000384989652411 0.000900449587702 -0.000820090343347
74 2 12.534947564 9.1e-08 3.848820961 0.0 0.0 0.0 -0.000298777913756 0.000205510773484 0.000169957462761
75 2 8.816542806 6.440465404 3.848820961 0.0 0.0 0.0 -0.000105109428172 -0.000308948484054 8.8194454376e-05
76 2 16.253352178 6.440465404 3.848820961 0.0 0.0 0.0 6.02983281984e-05 -0.00021442542584 -6.67755637709e-05
77 2 5.098138235 8.3e-08 10.785671101 0.0 0.0 0.0 3.72629988233e-06 0.000201203487523 0.000149931814016
78 2 12.534947607 8.3e-08 10.785671101 0.0 0.0 0.0 -0.000108414054596 9.19981667056e-05 -7.59119386764e-05
79 2 8.816542849 6.440465397 10.785671101 0.0 0.0 0.0 -6.98097006587e-05 -0.000148236515025 -4.78609232682e-05
80 2 16.253352221 6.440465397 10.785671101 0.0 0.0 0.0 1.46762208981e-05 -9.9806331878e-05 5.78144722638e-05
81 1 12.472986142 12.880930033 4.819894401 0.0 0.0 0.0 -4.98508608658e-05 -0.000173859805497 0.000187588144559
82 1 19.909795513 12.880930033 4.819894401 0.0 0.0 0.0 2.88540603442e-05 -7.10515716595e-05 -4.31398292267e-05
83 1 8.754581528 6.440464719 4.819894401 0.0 0.0 0.0 -1.74112294467e-05 0.000108551045366 -1.15616221198e-05
84 1 16.191390899 6.440464719 4.819894401 0.0 0.0 0.0 -7.21039294103e-05 7.72244073953e-05 6.72969673075e-05
85 1 12.472986185 12.880930026 11.756744541 0.0 0.0 0.0 -5.02056452946e-05 -0.000174303858985 -0.000129465324244
86 1 19.909795557 12.880930026 11.756744541 0.0 0.0 0.0 2.8933339594e-05 -7.09818677072e-05 0.000101136566786
87 1 8.754581571 6.440464712 11.756744541 0.0 0.0 0.0 -1.73330868397e-05 0.000108503790215 6.95490620928e-05
88 1 16.191390943 6.440464712 11.756744541 0.0 0.0 0.0 -7.20813328142e-05 7.72504104031e-05 -9.30092152261e-06
89 1 4.172478132 1.2e-08 3.541396305 0.0 0.0 0.0 0.000112968463251 -0.0012705469755 0.00116768972649
90 1 11.609287504 1.2e-08 3.541396305 0.0 0.0 0.0 5.67966748869e-05 -5.97110642523e-05 2.52175570109e-05
91 1 7.890882746 6.440465326 3.541396305 0.0 0.0 0.0 1.55234779526e-05 0.000180712054854 2.76107194668e-05
92 1 15.327692118 6.440465326 3.541396305 0.0 0.0 0.0 -0.000143880608139 8.90783422528e-05 7.39531697993e-05
93 1 4.172478175 5e-09 10.478246445 0.0 0.0 0.0 -0.000114073502016 -9.94068563025e-05 1.69197310067e-05
94 1 11.609287547 5e-09 10.478246445 0.0 0.0 0.0 -2.78866791714e-05 -2.4169540006e-05 6.77581993028e-05
95 1 7.890882789 6.440465319 10.478246445 0.0 0.0 0.0 -3.25415946168e-05 6.86766464042e-05 6.77274655599e-05
96 1 15.327692161 6.440465319 10.478246445 0.0 0.0 0.0 -9.89816032477e-05 3.03915715844e-05 4.12450693053e-05
97 2 12.324550744 4.415115375 3.848820709 0.0 0.0 0.0 0.000116011897623 -6.08476722225e-05 -1.43819876554e-06
98 2 4.887741372 4.415115375 3.848820709 0.0 0.0 0.0 -0.000255629367532 -0.000468075212512 -0.000283358095206
99 2 16.042955358 10.855580689 3.848820709 0.0 0.0 0.0 -7.36325372824e-05 3.47140136322e-05 2.66023277942e-06
100 2 8.606145986 10.855580689 3.848820709 0.0 0.0 0.0 -0.000270141706675 -0.000621567083436 0.00180240572489
101 2 12.324550787 4.415115367 10.785670849 0.0 0.0 0.0 6.57706417271e-05 -4.43312041037e-05 1.76593916303e-05
102 2 4.887741415 4.415115367 10.785670849 0.0 0.0 0.0 -7.04652116736e-05 -0.000159060522823 0.000161519984163
103 2 16.042955401 10.855580681 10.785670849 0.0 0.0 0.0 -3.39415397649e-05 4.38850443187e-06 1.46122563224e-05
104 2 8.606146029 10.855580681 10.785670849 0.0 0.0 0.0 7.13818060012e-05 5.69741979823e-05 -0.000284560960532
105 1 12.355530592 4.361455296 4.81989398 0.0 0.0 0.0 -1.31512511877e-05 -1.66958686435e-05 3.85588670392e-05
106 1 4.91872122 4.361455296 4.81989398 0.0 0.0 0.0 9.2257481293e-05 8.84445370162e-05 0.000155388727216
107 1 16.073935206 10.801920609 4.81989398 0.0 0.0 0.0 5.58086816321e-05 -5.74814784872e-05 3.87561070101e-05
108 1 8.637125834 10.801920609 4.81989398 0.0 0.0 0.0 -3.57449964464e-06 -9.64644162503e-05 -0.000310338753049
109 1 12.355530635 4.361455288 11.75674412 0.0 0.0 0.0 -1.39570205339e-05 -1.7182245833e-05 2.85232337014e-05
110 1 4.918721263 4.361455288 11.75674412 0.0 0.0 0.0 9.42428386041e-05 8.74917717321e-05 -8.82240735997e-05
111 1 16.073935249 10.801920602 11.75674412 0.0 0.0 0.0 5.57996051834e-05 -5.64852862571e-05 2.872696461e-05
112 1 8.637125877 10.801920602 11.75674412 0.0 0.0 0.0 -1.79618984169e-05 -8.7884916362e-05 0.000376693011237
113 1 12.787381758 3.613470486 3.541396271 0.0 0.0 0.0 -4.81805851927e-05 -8.2780813487e-05 6.81365324723e-05
114 1 5.350572387 3.613470486 3.541396271 0.0 0.0 0.0 0.000291419946639 0.000199434570625 0.000252401478876
115 1 16.505786372 10.0539358 3.541396271 0.0 0.0 0.0 6.97017029597e-05 -4.45548855616e-05 5.06577343732e-05
116 1 9.068977001 10.0539358 3.541396271 0.0 0.0 0.0 8.36983687335e-06 0.000648149717318 -0.000619604255169
117 1 12.787381802 3.613470479 10.478246411 0.0 0.0 0.0 3.74807996524e-06 -6.65802089922e-05 4.80987454178e-05
118 1 5.35057243 3.613470479 10.478246411 0.0 0.0 0.0 6.97593365555e-05 -2.41875113265e-05 -1.13101701372e-05
119 1 16.505786416 10.053935793 10.478246411 0.0 0.0 0.0 4.83264370506e-05 -4.68656476027e-05 5.77213983567e-05
120 1 9.068977044 10.053935793 10.478246411 0.0 0.0 0.0 2.24046083033e-06 -4.91265806143e-05 0.000142717256127
121 2 16.042954883 2.025349614 3.848821218 0.0 0.0 0.0 0.00102889537898 0.000181323047064 -0.000936220862572
122 2 8.606145512 2.025349614 3.848821218 0.0 0.0 0.0 -0.000206758067021 6.0760664841e-06 -5.52119125053e-05
123 2 19.761359497 8.465814928 3.848821218 0.0 0.0 0.0 -0.000218466799636 -0.000207537974507 9.56681758063e-05
124 2 12.324550126 8.465814928 3.848821218 0.0 0.0 0.0 0.000307483958121 -9.5781684097e-05 0.00015169397944
125 2 16.042954927 2.025349607 10.785671358 0.0 0.0 0.0 0.000177054380978 0.000167107297883 0.000171812237611
126 2 8.606145555 2.025349607 10.785671358 0.0 0.0 0.0 -9.0486502822e-05 1.96277833043e-05 5.55663249961e-05
127 2 19.761359541 8.46581492 10.785671358 0.0 0.0 0.0 -9.49240561694e-05 -9.03254417715e-05 -4.70661988149e-05
128 2 12.324550169 8.46581492 10.785671358 0.0 0.0 0.0 0.00012804868006 2.46445265507e-06 -6.15534068231e-05
129 1 16.07393341 2.079010738 4.819894452 0.0 0.0 0.0 -0.000131832077241 -0.000110194288857 0.000199297919503
130 1 8.637124038 2.079010738 4.819894452 0.0 0.0 0.0 0.000107007589537 3.34871711892e-05 6.90855954041e-05
131 1 19.792338024 8.519476052 4.819894452 0.0 0.0 0.0 0.000105313674668 0.000113762371302 -3.86928056204e-06
132 1 12.355528653 8.519476052 4.819894452 0.0 0.0 0.0 -6.10339022008e-05 6.1883961482e-05 -2.63365879477e-05
133 1 16.073933453 2.079010731 11.756744592 0.0 0.0 0.0 -0.000132084383488 -9.41530829289e-05 -0.000144973448859
134 1 8.637124082 2.079010731 11.756744592 0.0 0.0 0.0 0.000105517498377 3.34728082636e-05 -1.03679244372e-06
135 1 19.792338067 8.519476045 11.756744592 0.0 0.0 0.0 0.000106725125322 0.000114500522286 7.2104881074e-05
136 1 12.355528696 8.519476045 11.756744592 0.0 0.0 0.0 -6.10251801099e-05 5.96374001464e-05 9.32123613946e-05
137 1 1.632167798 2.826994038 3.541396624 0.0 0.0 0.0 -0.000411243869828 0.000519455527796 0.000624696628928
138 1 9.06897717 2.826994038 3.541396624 0.0 0.0 0.0 0.000114287551281 9.21360603204e-05 6.79998714077e-05
139 1 5.350572412 9.267459352 3.541396624 0.0 0.0 0.0 0.000222550949071 0.000185722970239 -3.35347766776e-05
140 1 12.787381784 9.267459352 3.541396624 0.0 0.0 0.0 -0.000170089638334 4.51976395049e-05 -7.60353758275e-06
141 1 1.632167841 2.826994031 10.478246764 0.0 0.0 0.0 -2.28160823484e-05 4.74467791427e-05 -2.30262441001e-05
142 1 9.068977213 2.826994031 10.478246764 0.0 0.0 0.0 6.23177043262e-05 7.23961752405e-05 4.62345459012e-05
143 1 5.350572456 9.267459345 10.478246764 0.0 0.0 0.0 7.88460611608e-05 8.85345987176e-05 9.88771152594e-05
144 1 12.787381827 9.267459345 10.478246764 0.0 0.0 0.0 -1.77695311774e-05 3.70999912878e-05 7.374084645e-05
145 2 12.258736453 12.880930313 6.469757221 0.0 0.0 0.0 -1.8201872677e-05 0.000199069870931 -0.000186376011078
146 2 19.695545825 12.880930313 6.469757221 0.0 0.0 0.0 -0.000116739544828 8.59011327943e-05 2.55682053025e-05
147 2 8.540331839 6.440464999 6.469757221 0.0 0.0 0.0 -8.23796970456e-05 -0.00013971818384 2.35345779436e-06
148 2 15.97714121 6.440464999 6.469757221 0.0 0.0 0.0 -1.35569719268e-06 -9.31770179572e-05 -9.2478322152e-05
149 2 12.258736496 12.880930306 13.40660736 0.0 0.0 0.0 -0.000404700743173 0.000983510811946 0.00100718165062
150 2 19.695545868 12.880930306 13.40660736 0.0 0.0 0.0 -0.000350645985474 0.000224177247656 -0.000216751277178
151 2 8.540331882 6.440464992 13.40660736 0.0 0.0 0.0 -0.000121825545806 -0.000327682440086 -0.000128083725343
152 2 15.977141254 6.440464992 13.40660736 0.0 0.0 0.0 5.07933827887e-05 -0.000229351585131 2.31701282001e-05
153 1 5.331166141 0.766954845 6.788243965 0.0 0.0 0.0 -3.52824536778e-05 -3.12519638688e-05 5.75069429541e-05
154 1 12.767975512 0.766954845 6.788243965 0.0 0.0 0.0 -5.59938717186e-05 -3.56714583575e-05 -4.54709786787e-05
155 1 9.049570755 7.207420159 6.788243965 0.0 0.0 0.0 -6.14462958671e-05 7.84001857575e-05 -6.88726585115e-05
156 1 16.486380127 7.207420159 6.788243965 0.0 0.0 0.0 -6.27341953418e-05 5.74197140769e-05 -1.61930241192e-05
157 1 5.331166184 0.766954838 13.725094105 0.0 0.0 0.0 0.00055648661506 -0.000108377707265 -0.000591956729614
158 1 12.767975556 0.766954838 13.725094105 0.0 0.0 0.0 2.65936589366e-05 -0.000181997429368 4.3965158752e-05
159 1 9.049570798 7.207420151 13.725094105 0.0 0.0 0.0 -5.58366853958e-05 0.000255986853611 6.61650842488e-05
160 1 16.48638017 7.207420151 13.725094105 0.0 0.0 0.0 -6.7600017196e-05 0.000111235286748 -3.6711038187e-05
161 1 16.486380702 5.673510068 6.788243516 0.0 0.0 0.0 -8.55909714324e-05 3.0086737778e-05 1.61197716538e-05
162 1 9.04957133 5.673510068 6.788243516 0.0 0.0 0.0 -4.37147062564e-05 3.38349333321e-05 -2.81677499089e-05
163 1 20.204785316 12.113975382 6.788243516 0.0 0.0 0.0 -1.87423755107e-05 -4.83751153135e-05 -7.29215608541e-05
164 1 12.767975944 12.113975382 6.788243516 0.0 0.0 0.0 -8.60874945196e-05 -9.46904016134e-05 -8.14142576363e-06
165 1 16.486380745 5.673510061 13.725093655 0.0 0.0 0.0 -0.000135888521511 0.000176767135129 -0.000100078370786
166 1 9.049571373 5.673510061 13.725093655 0.0 0.0 0.0 -2.50925376333e-05 0.000100922025384 -1.2739300973e-05
167 1 20.204785359 12.113975375 13.725093655 0.0 0.0 0.0 0.000231891001881 -9.64974701718e-05 0.000131521480566
168 1 12.767975987 12.113975375 13.725093655 0.0 0.0 0.0 -6.98287233854e-05 -0.000498208596505 -0.000108482046504
169 2 12.462655523 4.175912014 6.46975888 0.0 0.0 0.0 6.65380042491e-05 -6.10263961681e-05 -5.9053275954e-05
170 2 5.025846151 4.175912014 6.46975888 0.0 0.0 0.0 -6.02154705548e-05 -0.000169349774646 -0.000189403580121
171 2 16.181060137 10.616377328 6.46975888 0.0 0.0 0.0 -2.68618439839e-05 -1.40966706403e-05 -5.70308502392e-05
172 2 8.744250765 10.616377328 6.46975888 0.0 0.0 0.0 5.81025933228e-05 1.89957467191e-05 0.000227223968488
173 2 12.462655566 4.175912007 13.406609019 0.0 0.0 0.0 0.000127269602659 -8.02424859715e-05 -4.32099389915e-05
174 2 5.025846194 4.175912007 13.406609019 0.0 0.0 0.0 -0.000281746376066 -0.000530841475317 0.000246169108467
175 2 16.18106018 10.616377321 13.406609019 0.0 0.0 0.0 -7.41552405721e-05 1.98809980832e-05 -4.66992533907e-05
176 2 8.744250808 10.616377321 13.406609019 0.0 0.0 0.0 -0.000269426218856 -0.000790101389231 -0.002516890183
177 1 4.107023344 4.233448053 6.788243333 0.0 0.0 0.0 2.29974181631e-05 -9.85493797175e-06 5.26844437213e-05
178 1 11.543832716 4.233448053 6.788243333 0.0 0.0 0.0 1.10589362303e-05 -4.47304617831e-05 -2.30507253317e-05
179 1 7.825427958 10.673913367 6.788243333 0.0 0.0 0.0 3.7347133666e-05 -7.1348605271e-05 -0.000119704516628
180 1 15.26223733 10.673913367 6.788243333 0.0 0.0 0.0 1.54672945632e-05 -8.60900306378e-05 -1.55656093615e-05
181 1 4.107023387 4.233448046 13.725093473 0.0 0.0 0.0 0.000125552454423 0.000319141845291 -0.000248040675576
182 1 11.543832759 4.233448046 13.725093473 0.0 0.0 0.0 3.57530705328e-06 -2.94689456572e-05 -1.67468281687e-05
183 1 7.825428001 10.67391336 13.725093473 0.0 0.0 0.0 0.000677818471385 0.000387241148544 0.000655763453521
184 1 15.262237373 10.67391336 13.725093473 0.0 0.0 0.0 2.34849615044e-05 -0.000132789965978 -3.05917420164e-05
185 1 12.872237203 5.00040447 6.78824545 0.0 0.0 0.0 1.13030256156e-05 -2.93895619233e-05 -2.57540467344e-05
186 1 5.435427832 5.00040447 6.78824545 0.0 0.0 0.0 8.90514195953e-05 1.85131899007e-05 -4.83543850679e-06
187 1 16.590641818 11.440869783 6.78824545 0.0 0.0 0.0 8.48433806322e-05 -6.73653013654e-05 -2.88280369894e-05
188 1 9.153832446 11.440869783 6.78824545 0.0 0.0 0.0 -1.2600263386e-05 -0.000146622039024 -0.000118492971838
189 1 12.872237247 5.000404462 13.72509559 0.0 0.0 0.0 -3.89141311592e-05 3.72141564172e-06 -3.65313942705e-05
190 1 5.435427875 5.000404462 13.72509559 0.0 0.0 0.0 0.000167491948192 0.00014544304769 -7.05559010569e-05
191 1 16.590641861 11.440869776 13.72509559 0.0 0.0 0.0 0.000136855234136 -8.75775918984e-05 -3.11973459277e-05
192 1 9.153832489 11.440869776 13.72509559 0.0 0.0 0.0 -0.000892102163007 -0.00112224067696 0.00347265683169
193 2 1.307441393 2.264553585 6.469759523 0.0 0.0 0.0 0.000176954555047 0.000173738003458 -0.000200349371681
194 2 8.744250764 2.264553585 6.469759523 0.0 0.0 0.0 -8.43512904576e-05 3.81349384251e-05 -9.49117897878e-05
195 2 5.025846007 8.705018899 6.469759523 0.0 0.0 0.0 -8.6945579682e-05 -6.5122709792e-05 -2.28869277027e-06
196 2 12.462655379 8.705018899 6.469759523 0.0 0.0 0.0 0.000123156123812 2.10897446283e-05 1.26971321235e-05
197 2 1.307441436 2.264553578 13.406609663 0.0 0.0 0.0 0.00122532056322 0.000162919683521 0.00126045143168
198 2 8.744250808 2.264553578 13.406609663 0.0 0.0 0.0 -0.000217587881233 2.32015148902e-05 9.73603868898e-06
199 2 5.02584605 8.705018892 13.406609663 0.0 0.0 0.0 -0.000233702383711 -0.000204658087002 -0.000137763752594
200 2 12.462655422 8.705018892 13.406609663 0.0 0.0 0.0 0.000331905094921 -9.12728784505e-05 -0.000200027870974
201 1 1.717022388 1.440060952 6.788246651 0.0 0.0 0.0 -2.46300083076e-05 -5.16294547018e-05 2.02567321515e-05
202 1 9.15383176 1.440060952 6.788246651 0.0 0.0 0.0 8.9864639056e-05 3.77999564621e-05 -2.38314101358e-05
203 1 5.435427002 7.880526266 6.788246651 0.0 0.0 0.0 9.14396735661e-05 0.000119405309859 -4.84992781714e-05
204 1 12.872236374 7.880526266 6.788246651 0.0 0.0 0.0 8.25871160767e-06 7.43600663418e-05 -4.42442803816e-05
205 1 1.717022431 1.440060945 13.725096791 0.0 0.0 0.0 -0.00078785847707 -0.000979212527183 -0.00214180133012
206 1 9.153831803 1.440060945 13.725096791 0.0 0.0 0.0 0.00015455578714 2.49016986612e-05 -4.67493589401e-05
207 1 5.435427045 7.880526258 13.725096791 0.0 0.0 0.0 0.000165453607696 0.000224609449768 -4.25196381589e-06
208 1 12.872236417 7.880526258 13.725096791 0.0 0.0 0.0 -5.33462937896e-05 0.000120497454526 -1.29082029568e-05
209 1 15.262237079 2.207018097 6.788243067 0.0 0.0 0.0 -4.54594706818e-05 2.3349789755e-06 2.24200678101e-06
210 1 7.825427708 2.207018097 6.788243067 0.0 0.0 0.0 6.49769769292e-05 6.41580718748e-05 1.87144032322e-05
211 1 18.980641693 8.647483411 6.788243067 0.0 0.0 0.0 5.00264679646e-05 9.98900618994e-05 -2.51210684438e-05
212 1 11.543832322 8.647483411 6.788243067 0.0 0.0 0.0 -3.82292445844e-05 7.68814076943e-05 -6.63185811905e-05
213 1 15.262237122 2.207018089 13.725093207 0.0 0.0 0.0 -0.000471605547198 -0.000159061723461 -0.000124657286775
214 1 7.825427751 2.207018089 13.725093207 0.0 0.0 0.0 0.000201997935873 9.13503368876e-05 -8.63998340986e-05
215 1 18.980641736 8.647483403 13.725093207 0.0 0.0 0.0 0.000105287517638 0.000151770726565 -3.70649624454e-06
216 1 11.543832365 8.647483403 13.725093207 0.0 0.0 0.0 -0.000209771462678 0.000245992575488 0.000132411323498
217 2 10.05169036 12.880930562 3.001331049 0.0 0.0 0.0 0.00560888842706 0.00967914891466 -0.0007088334257
218 2 17.488499731 12.880930562 3.001331049 0.0 0.0 0.0 -0.000166447652409 8.47925624456e-05 -3.88380817639e-05
219 2 6.333285745 6.440465248 3.001331049 0.0 0.0 0.0 -0.000166151330215 -0.000372233132251 -3.92508143265e-05
220 2 13.770095117 6.440465248 3.001331049 0.0 0.0 0.0 0.000229371628969 -0.000143919250693 -4.49414791823e-05
221 2 10.051690403 12.880930555 9.938181189 0.0 0.0 0.0 0.000160858320934 0.000194786381759 -3.58035926169e-05
222 2 17.488499774 12.880930555 9.938181189 0.0 0.0 0.0 -2.80564217478e-05 3.79906882679e-05 -4.53720104406e-05
223 2 6.333285789 6.440465241 9.938181189 0.0 0.0 0.0 -2.80451527028e-05 -0.000132710407687 -4.5111311855e-05
224 2 13.77009516 6.440465241 9.938181189 0.0 0.0 0.0 0.000119711701285 -4.74288353741e-05 -4.15364965335e-05
225 1 13.26085702 5.67351034 3.319819519 0.0 0.0 0.0 -2.39219109876e-05 4.18745298261e-05 -2.18736748737e-05
226 1 5.824047648 5.67351034 3.319819519 0.0 0.0 0.0 0.000174937286014 0.000171855605557 1.19695755617e-05
227 1 16.979261634 12.113975653 3.319819519 0.0 0.0 0.0 0.000154693122568 -5.45942848646e-05 -2.80937350741e-05
228 1 9.542452262 12.113975653 3.319819519 0.0 0.0 0.0 -0.000221124631464 0.000116260918411 -0.00461492704492
229 1 13.260857063 5.673510332 10.256669659 0.0 0.0 0.0 2.50880984037e-05 5.16224595869e-06 -3.23315835304e-05
230 1 5.824047691 5.673510332 10.256669659 0.0 0.0 0.0 0.000102612051879 5.16265844889e-05 -5.09389846377e-05
231 1 16.979261677 12.113975646 10.256669659 0.0 0.0 0.0 9.98573691844e-05 -3.47586448296e-05 -2.84632483992e-05
232 1 9.542452305 12.113975646 10.256669659 0.0 0.0 0.0 1.45022204939e-06 -0.000115130692303 2.47658467943e-05
233 1 2.105642892 0.766955018 3.319818703 0.0 0.0 0.0 -0.00134854996188 -0.00053491985078 0.00268649567877
234 1 9.542452263 0.766955018 3.319818703 0.0 0.0 0.0 0.000164921697982 -1.37619995442e-05 -1.28497692615e-05
235 1 5.824047506 7.207420332 3.319818703 0.0 0.0 0.0 0.000171693456808 0.000190265664251 -4.98714073526e-05
236 1 13.260856878 7.207420332 3.319818703 0.0 0.0 0.0 -3.66218341933e-05 8.49318007715e-05 -4.43863120584e-05
237 1 2.105642935 0.766955011 10.256668843 0.0 0.0 0.0 -2.19969566484e-06 -8.2541539501e-05 -6.20102295043e-05
238 1 9.542452307 0.766955011 10.256668843 0.0 0.0 0.0 0.000102063239823 1.69126771313e-06 -3.21122948393e-05
239 1 5.824047549 7.207420325 10.256668843 0.0 0.0 0.0 0.000103276380127 8.57244691191e-05 -1.05566811048e-05
240 1 13.260856921 7.207420325 10.256668843 0.0 0.0 0.0 2.14887877327e-05 4.01850021275e-05 -1.43645628086e-05
241 2 13.566178647 2.264553318 3.001331607 0.0 0.0 0.0 0.00021464886201 0.000425026571847 -5.10795671324e-05
242 2 6.129369276 2.264553318 3.001331607 0.0 0.0 0.0 -0.000803118663771 -0.000162932945686 -0.000422620249356
243 2 17.284583261 8.705018632 3.001331607 0.0 0.0 0.0 -0.000107350560497 -9.8519000521e-05 -4.49926285315e-05
244 2 9.84777389 8.705018632 3.001331607 0.0 0.0 0.0 0.000213133332681 -0.000752969186662 0.000352293680883
245 2 13.56617869 2.26455331 9.938181747 0.0 0.0 0.0 2.80312279905e-05 0.000123864180693 -4.53336582936e-05
246 2 6.129369319 2.26455331 9.938181747 0.0 0.0 0.0 -9.85151951096e-05 5.0802401062e-05 4.9327228137e-05
247 2 17.284583305 8.705018624 9.938181747 0.0 0.0 0.0 -5.92767163468e-05 -1.92642936392e-05 -4.76634361887e-05
248 2 9.847773933 8.705018624 9.938181747 0.0 0.0 0.0 2.78769646856e-05 -1.53840358796e-05 -0.000146263621204
249 1 14.485000752 2.20701716 3.319818255 0.0 0.0 0.0 -0.000361712379158 -0.000166024404735 6.79720238517e-05
250 1 7.048191381 2.20701716 3.319818255 0.0 0.0 0.0 0.000172281690088 8.8413026106e-05 4.15843137427e-05
251 1 18.203405367 8.647482473 3.319818255 0.0 0.0 0.0 6.99656554722e-05 0.000149891846002 -3.73854480231e-05
252 1 10.766595995 8.647482473 3.319818255 0.0 0.0 0.0 -0.000243529128604 0.000280160759703 -0.000190678589911
253 1 14.485000796 2.207017152 10.256668395 0.0 0.0 0.0 -6.80472363972e-05 6.05138442706e-06 -4.32560102781e-05
254 1 7.048191424 2.207017152 10.256668395 0.0 0.0 0.0 3.62491057086e-05 6.5145283002e-05 -6.32451392984e-05
255 1 18.20340541 8.647482466 10.256668395 0.0 0.0 0.0 2.03788044438e-05 0.000100807953534 -1.79164055706e-05
256 1 10.766596038 8.647482466 10.256668395 0.0 0.0 0.0 -6.32638906842e-05 7.7773579076e-05 2.49526828906e-05
257 1 5.719786092 1.440061854 3.319818129 0.0 0.0 0.0 0.00049377988552 4.13458745611e-06 0.000385948228174
258 1 13.156595464 1.440061854 3.319818129 0.0 0.0 0.0 2.04570784406e-05 -0.000165032364668 -8.48660710831e-05
259 1 9.438190706 7.880527168 3.319818129 0.0 0.0 0.0 -3.24565762723e-05 0.000286946605595 -0.000118270499018
260 1 16.875000078 7.880527168 3.319818129 0.0 0.0 0.0 -4.73941467056e-05 0.000133567367022 -1.15763141373e-05
261 1 5.719786135 1.440061847 10.256668269 0.0 0.0 0.0 -2.09759064506e-05 2.78709903454e-06 -9.46207539294e-05
262 1 13.156595507 1.440061847 10.256668269 0.0 0.0 0.0 -4.47686381571e-05 -8.2178045504e-06 -5.12200447459e-06
263 1 9.438190749 7.880527161 10.256668269 0.0 0.0 0.0 -4.79622699071e-05 0.000102520694819 2.43967572775e-05
264 1 16.875000121 7.880527161 10.256668269 0.0 0.0 0.0 -4.35988915876e-05 8.35625903506e-05 -3.10144517537e-05
265 2 2.410964342 4.175911908 3.001332195 0.0 0.0 0.0 0.000162685742674 -0.000870689266077 -0.000460231822549
266 2 9.847773713 4.175911908 3.001332195 0.0 0.0 0.0 -9.10935159158e-05 -0.000171962823068 -4.58161259931e-05
267 2 6.129368956 10.616377222 3.001332195 0.0 0.0 0.0 -0.000863773230835 -0.000285679606006 0.000395284180846
268 2 13.566178327 10.616377222 3.001332195 0.0 0.0 0.0 0.000163997343278 0.000307737069574 -5.2010546293e-05
269 2 2.410964385 4.175911901 9.938182334 0.0 0.0 0.0 2.01947502786e-05 -0.000103363323516 5.56719060429e-05
270 2 9.847773757 4.175911901 9.938182334 0.0 0.0 0.0 -5.11694578271e-05 -9.79376478044e-05 -4.85550820652e-05
271 2 6.129368999 10.616377215 9.938182334 0.0 0.0 0.0 -9.2423174506e-05 -3.02762988803e-05 -0.000154817376674
272 2 13.566178371 10.616377215 9.938182334 0.0 0.0 0.0 2.02420258332e-05 3.48093058924e-05 -4.61501555263e-05