ITEM: TIMESTEP
0
ITEM: NUMBER OF ATOMS
288
ITEM: BOX BOUNDS xy xz yz xx yy zz
0.0 14.873618743 7.436809228
0.0 12.880930628 8.6e-08
0.0 13.87370028 -1.5e-08
ITEM: ATOMS id type x y z vx vy vz fx fy fz
1 2 2.338671397 1.12e-07 0.380392751 0.0 0.0 0.0 -0.196749113533 -0.0168821713423 0.0551062378538
2 2 9.775480768 1.12e-07 0.380392751 0.0 0.0 0.0 0.00028329396362 -0.000107628262557 2.59931096932e-05
3 2 6.057076011 6.440465426 0.380392751 0.0 0.0 0.0 0.000242161203535 0.000407575354273 2.50688743441e-05
4 2 13.493885382 6.440465426 0.380392751 0.0 0.0 0.0 -0.000156835046599 0.000177801411059 7.23491714579e-06
5 2 2.33867144 1.04e-07 7.317242891 0.0 0.0 0.0 -5.79253770405e-05 -0.000162471697795 3.09273236284e-05
6 2 9.775480812 1.04e-07 7.317242891 0.0 0.0 0.0 9.51103851741e-05 -3.7028827576e-05 1.13055607769e-05
7 2 6.057076054 6.440465418 7.317242891 0.0 0.0 0.0 9.22403614137e-05 0.000118196631271 1.15325947855e-05
8 2 13.493885426 6.440465418 7.317242891 0.0 0.0 0.0 -3.09852138147e-05 4.7122067326e-05 2.08464581864e-05
9 1 2.400632363 4.61e-07 1.351465958 0.0 0.0 0.0 0.00645089237326 0.00109143330724 -0.000499229150136
10 1 9.837441735 4.61e-07 1.351465958 0.0 0.0 0.0 -7.21954796471e-05 4.93347370235e-05 1.70136013163e-05
11 1 6.119036977 6.440465774 1.351465958 0.0 0.0 0.0 -5.03790962151e-05 -0.000181585187794 1.90613003212e-05
12 1 13.555846349 6.440465774 1.351465958 0.0 0.0 0.0 0.000122795170787 -8.18779936049e-05 5.39711562174e-05
13 1 2.400632406 4.53e-07 8.288316098 0.0 0.0 0.0 0.000101546105892 0.000115972098676 2.06011686631e-06
14 1 9.837441778 4.53e-07 8.288316098 0.0 0.0 0.0 9.92632869912e-07 2.07313270599e-05 5.03309371792e-05
15 1 6.11903702 6.440465767 8.288316098 0.0 0.0 0.0 3.7958552529e-06 -7.28712062182e-05 4.97229890822e-05
16 1 13.555846392 6.440465767 8.288316098 0.0 0.0 0.0 7.62912110804e-05 -3.1053627019e-05 2.94744043925e-05
17 1 10.696141081 12.872270304 0.072968506 0.0 0.0 0.0 0.184901018716 0.0232468349738 -0.0503031619754
18 1 18.137950453 12.880930558 0.072968506 0.0 0.0 0.0 -4.89985583663e-05 3.79909744438e-05 5.99123419616e-05
19 1 6.982736468 6.440465244 0.072968506 0.0 0.0 0.0 -6.47720964524e-05 -0.000203926218412 5.95876438942e-05
20 1 14.419545839 6.440465244 0.072968506 0.0 0.0 0.0 0.000163015911474 -7.23113509832e-05 5.27174127627e-05
21 1 10.701141125 12.880930551 7.009818646 0.0 0.0 0.0 0.000111295304992 8.18533671849e-05 6.01205589158e-05
22 1 18.137950497 12.880930551 7.009818646 0.0 0.0 0.0 2.6852791283e-05 1.53156214538e-05 5.25540415959e-05
23 1 6.982736511 6.440465237 7.009818646 0.0 0.0 0.0 2.57533953566e-05 -5.83622585908e-05 5.26277431871e-05
24 1 14.419545882 6.440465237 7.009818646 0.0 0.0 0.0 9.39498347462e-05 -1.90042584833e-05 5.61975851187e-05
25 2 13.704282012 2.025348059 0.380394512 0.0 0.0 0.0 7.70572153996e-06 -0.000190575161592 -8.52983338628e-07
26 2 6.26747264 2.025348059 0.380394512 0.0 0.0 0.0 0.00185274796801 0.000971107557678 0.000393095346933
27 2 17.422686626 8.465813373 0.380394512 0.0 0.0 0.0 -1.69926376394e-05 0.000121689745851 9.55242371425e-06
28 2 9.985877254 8.465813373 0.380394512 0.0 0.0 0.0 0.000154158109842 0.00116904622249 -0.000181536400255
29 2 13.704282055 2.025348052 7.317244652 0.0 0.0 0.0 -2.02895656882e-05 -2.02909571794e-05 1.19119912474e-05
30 2 6.267472684 2.025348052 7.317244652 0.0 0.0 0.0 1.61810132108e-05 1.00968104346e-06 -4.01369502157e-05
31 2 17.422686669 8.465813365 7.317244652 0.0 0.0 0.0 -1.19983806184e-05 6.46307794275e-05 8.16102984946e-06
32 2 9.985877298 8.465813365 7.317244652 0.0 0.0 0.0 -1.68442455551e-05 9.42858193656e-05 5.11926605609e-05
33 1 13.673300338 2.079010187 1.351467718 0.0 0.0 0.0 -2.75845822755e-05 0.000124682421277 4.85883435469e-05
34 1 6.236490966 2.079010187 1.351467718 0.0 0.0 0.0 -0.000599387672302 -0.000200141793208 -0.000475975476399
35 1 17.391704952 8.519475501 1.351467718 0.0 0.0 0.0 -1.28873997667e-05 -1.84515197082e-05 2.8075492386e-05
36 1 9.95489558 8.519475501 1.351467718 0.0 0.0 0.0 -6.2947433902e-05 -0.000356235982055 0.0002556749108
37 1 13.673300381 2.07901018 8.288317858 0.0 0.0 0.0 -1.04221531856e-05 6.12459722556e-05 2.58133135642e-05
38 1 6.236491009 2.07901018 8.288317858 0.0 0.0 0.0 -4.38195350054e-05 4.25911048418e-05 0.000121421301023
39 1 17.391704995 8.519475493 8.288317858 0.0 0.0 0.0 -1.58209903684e-05 5.09599911741e-06 3.4508603017e-05
40 1 9.954895623 8.519475493 8.288317858 0.0 0.0 0.0 -1.2778328707e-05 -2.28681338233e-05 -3.7839021555e-05
41 1 13.241451457 2.826992613 0.072968839 0.0 0.0 0.0 -1.29456666229e-05 9.03665654929e-05 5.18186836084e-05
42 1 5.804642085 2.826992613 0.072968839 0.0 0.0 0.0 -0.000646689905477 -0.000741313723464 9.29265606453e-05
43 1 16.959856071 9.267457927 0.072968839 0.0 0.0 0.0 -2.88015435602e-05 6.44298789505e-05 5.58384218795e-05
44 1 9.523046699 9.267457927 0.072968839 0.0 0.0 0.0 -0.000419108774446 -0.000883291937168 9.31521061318e-05
45 1 13.2414515 2.826992606 7.009818978 0.0 0.0 0.0 -2.72715689988e-05 6.59960298474e-05 5.50327866776e-05
46 1 5.804642128 2.826992606 7.009818978 0.0 0.0 0.0 -4.10650437596e-05 5.08695831157e-05 5.25696271306e-05
47 1 16.959856114 9.26745792 7.009818978 0.0 0.0 0.0 -3.16123423363e-05 5.88495635277e-05 5.35976393887e-05
48 1 9.523046743 9.26745792 7.009818978 0.0 0.0 0.0 -3.34066543744e-05 4.69271692866e-05 5.25794268576e-05
49 2 17.422687622 4.415117298 0.380394729 0.0 0.0 0.0 -0.000559473042809 0.000693091368404 0.000161205463767
50 2 9.985878251 4.415117298 0.380394729 0.0 0.0 0.0 0.000156755173117 0.000166914858351 1.30363155131e-05
51 2 21.141092236 10.855582612 0.380394729 0.0 0.0 0.0 0.000514762463499 4.27947423136e-05 -8.58866379593e-05
52 2 13.704282865 10.855582612 0.380394729 0.0 0.0 0.0 -0.000860154505777 -0.000660985747309 -3.59164169136e-05
53 2 17.422687665 4.415117291 7.317244869 0.0 0.0 0.0 -8.39846292174e-05 -6.76516109799e-07 -2.37257594785e-05
54 2 9.985878294 4.415117291 7.317244869 0.0 0.0 0.0 4.12222767548e-05 3.91933734051e-05 7.74790655693e-06
55 2 21.14109228 10.855582605 7.317244869 0.0 0.0 0.0 6.42387522669e-05 -2.84283312892e-05 3.97154664147e-05
56 2 13.704282908 10.855582605 7.317244869 0.0 0.0 0.0 -8.78282889288e-05 -0.000116121158311 1.59505729361e-05
57 1 2.518088606 4.36145465 1.351467896 0.0 0.0 0.0 0.000177000186335 -0.000266766794927 -0.000137112717376
58 1 9.954897977 4.36145465 1.351467896 0.0 0.0 0.0 -9.31872509175e-05 -0.00011652424853 2.66832796317e-05
59 1 6.23649322 10.801919964 1.351467896 0.0 0.0 0.0 -0.000228632826392 -4.12390450778e-05 0.000126063252297
60 1 13.673302591 10.801919964 1.351467896 0.0 0.0 0.0 0.000265511435656 0.000251613682065 8.75967666239e-05
61 1 2.518088649 4.361454643 8.288318036 0.0 0.0 0.0 2.32524968062e-05 -5.33647889395e-05 8.75305225121e-05
62 1 9.95489802 4.361454643 8.288318036 0.0 0.0 0.0 -5.14804151016e-05 -6.68595573916e-05 3.73221636741e-05
63 1 6.236493263 10.801919957 8.288318036 0.0 0.0 0.0 -7.29589735056e-05 -2.57313003766e-05 -1.20351275481e-05
64 1 13.673302635 10.801919957 8.288318036 0.0 0.0 0.0 2.68022706149e-05 3.25950657151e-05 2.3104025371e-05
65 1 16.959856167 3.613473172 0.07296928 0.0 0.0 0.0 0.000561311745776 -0.000434469419972 1.89196335358e-05
66 1 9.523046796 3.613473172 0.07296928 0.0 0.0 0.0 -0.000168835511981 -0.000140103307573 5.48749166985e-05
67 1 20.678260782 10.053938486 0.07296928 0.0 0.0 0.0 -0.000212951728064 -0.000147290298969 5.68545794387e-05
68 1 13.24145141 10.053938486 0.07296928 0.0 0.0 0.0 0.000564540786013 -0.000164580826249 5.34815479649e-05
69 1 16.959856211 3.613473164 7.00981942 0.0 0.0 0.0 1.52397076985e-05 -4.80380893817e-05 5.59261282933e-05
70 1 9.523046839 3.613473164 7.00981942 0.0 0.0 0.0 -6.49915518072e-05 -8.34002790424e-05 5.42910371145e-05
71 1 20.678260825 10.053938478 7.00981942 0.0 0.0 0.0 -6.76701619042e-05 -7.99105449281e-05 5.35650338196e-05
72 1 13.241451453 10.053938478 7.00981942 0.0 0.0 0.0 1.5279144477e-05 -3.91012068896e-05 5.36582887924e-05
73 2 5.098138192 9.1e-08 3.848820961 0.0 0.0 0.0 -0.000227327978224 -0.000501533330474 0.000306269305906
74 2 12.534947564 9.1e-08 3.848820961 0.0 0.0 0.0 8.50263455739e-05 -6.32083662817e-05 -3.71000300102e-05
75 2 8.816542806 6.440465404 3.848820961 0.0 0.0 0.0 6.92683458473e-05 0.000199794114086 -3.83723709789e-05
76 2 16.253352178 6.440465404 3.848820961 0.0 0.0 0.0 -0.000123828097198 8.79700864123e-05 4.29181723404e-05
77 2 5.098138235 8.3e-08 10.785671101 0.0 0.0 0.0 -0.000220773898339 -0.00104150110933 -0.000775608179768
78 2 12.534947607 8.3e-08 10.785671101 0.0 0.0 0.0 0.00014476441301 -9.14182857019e-05 6.73200169115e-05
79 2 8.816542849 6.440465397 10.785671101 0.0 0.0 0.0 9.87623140776e-05 0.000273867033738 6.21337265922e-05
80 2 16.253352221 6.440465397 10.785671101 0.0 0.0 0.0 -0.00015203030108 0.000128538173301 -3.66641747453e-05
81 1 12.472986142 12.880930033 4.819894401 0.0 0.0 0.0 5.32529029693e-06 0.000100802438917 -7.68164493107e-06
82 1 19.909795513 12.880930033 4.819894401 0.0 0.0 0.0 -8.02314391425e-05 2.59798662946e-05 4.39823442726e-05
83 1 8.754581528 6.440464719 4.819894401 0.0 0.0 0.0 -7.55929757578e-05 -6.70205819239e-05 4.42340974928e-05
84 1 16.191390899 6.440464719 4.819894401 0.0 0.0 0.0 -9.44225617695e-06 -2.87528602009e-05 1.75218691439e-05
85 1 12.472986185 12.880930026 11.756744541 0.0 0.0 0.0 -0.000233107134966 0.00126195223294 0.00114993893
86 1 19.909795557 12.880930026 11.756744541 0.0 0.0 0.0 -0.000164813456295 6.18454398596e-05 2.55542387639e-07
87 1 8.754581571 6.440464712 11.756744541 0.0 0.0 0.0 -0.000123533619644 -0.000179460831832 2.21800544673e-06
88 1 16.191390943 6.440464712 11.756744541 0.0 0.0 0.0 3.52469365929e-05 -8.73160075642e-05 4.89312966439e-05
89 1 4.172478132 1.2e-08 3.541396305 0.0 0.0 0.0 0.000224796120911 0.000462048324668 -6.30098732646e-05
90 1 11.609287504 1.2e-08 3.541396305 0.0 0.0 0.0 -0.00013347210941 2.5198398696e-05 5.8040183806e-05
91 1 7.890882746 6.440465326 3.541396305 0.0 0.0 0.0 -0.000138626653362 -0.000119388855494 6.05569280898e-05
92 1 15.327692118 6.440465326 3.541396305 0.0 0.0 0.0 -4.94810782867e-06 -4.21161302727e-05 4.82171046996e-05
93 1 4.172478175 5e-09 10.478246445 0.0 0.0 0.0 0.000225164776007 0.000462317491739 0.000169410573148
94 1 11.609287547 5e-09 10.478246445 0.0 0.0 0.0 -0.000133463394762 2.51809019594e-05 4.86498174436e-05
95 1 7.890882789 6.440465319 10.478246445 0.0 0.0 0.0 -0.000138619931164 -0.000119370195707 4.61442083354e-05
96 1 15.327692161 6.440465319 10.478246445 0.0 0.0 0.0 -4.92489452382e-06 -4.21217440944e-05 5.84734010194e-05
97 2 12.324550744 4.415115375 3.848820709 0.0 0.0 0.0 2.87844339547e-06 2.40856377223e-05 2.95436737355e-06
98 2 4.887741372 4.415115375 3.848820709 0.0 0.0 0.0 5.4853038708e-05 0.000196192843069 0.000274406278603
99 2 16.042955358 10.855580689 3.848820709 0.0 0.0 0.0 2.02755045549e-05 -0.000104274285757 2.94380139825e-05
100 2 8.606145986 10.855580689 3.848820709 0.0 0.0 0.0 0.000176872784268 -2.21300741715e-05 -0.000410890801212
101 2 12.324550787 4.415115367 10.785670849 0.0 0.0 0.0 -6.53112365338e-06 3.50752077862e-05 1.79681750027e-05
102 2 4.887741415 4.415115367 10.785670849 0.0 0.0 0.0 0.000115825085211 0.000377009560496 -0.000352652994317
103 2 16.042955401 10.855580681 10.785670849 0.0 0.0 0.0 2.94739181427e-05 -0.000133050109184 -1.27636945854e-05
104 2 8.606146029 10.855580681 10.785670849 0.0 0.0 0.0 0.000435254257989 0.000162271931663 0.000875803551262
105 1 12.355530592 4.361455296 4.81989398 0.0 0.0 0.0 2.64514027964e-05 -5.39826300863e-05 3.73256179777e-05
106 1 4.91872122 4.361455296 4.81989398 0.0 0.0 0.0 1.70550431898e-05 -8.40175167008e-05 -3.13424224195e-05
107 1 16.073935206 10.801920609 4.81989398 0.0 0.0 0.0 2.07259787743e-05 -5.32387670186e-06 2.7573614292e-05
108 1 8.637125834 10.801920609 4.81989398 0.0 0.0 0.0 5.50324805998e-06 -1.21636207777e-05 0.000122443482409
109 1 12.355530635 4.361455288 11.75674412 0.0 0.0 0.0 3.53192906145e-05 -7.376544887e-05 2.90726373231e-05
110 1 4.918721263 4.361455288 11.75674412 0.0 0.0 0.0 -6.55524683878e-05 -0.000385952222957 0.000228958221619
111 1 16.073935249 10.801920602 11.75674412 0.0 0.0 0.0 8.27703888032e-06 4.78603089511e-05 4.67583078243e-05
112 1 8.637125877 10.801920602 11.75674412 0.0 0.0 0.0 -0.000598572212116 -0.000365964293787 -0.000648270776115
113 1 12.787381758 3.613470486 3.541396271 0.0 0.0 0.0 3.52461439243e-05 -5.04341496926e-05 5.49281218599e-05
114 1 5.350572387 3.613470486 3.541396271 0.0 0.0 0.0 -4.20220037344e-05 -0.000192152496061 -0.000175245356135
115 1 16.505786372 10.0539358 3.541396271 0.0 0.0 0.0 3.05179197555e-05 -4.21128214514e-05 5.41365716442e-05
116 1 9.068977001 10.0539358 3.541396271 0.0 0.0 0.0 -6.41418490666e-05 -0.00016566468816 0.000331967258943
117 1 12.787381802 3.613470479 10.478246411 0.0 0.0 0.0 3.90856201521e-05 -4.70791957803e-05 5.51422190403e-05
118 1 5.35057243 3.613470479 10.478246411 0.0 0.0 0.0 -5.45535225076e-05 -0.000185004773714 0.00028458813332
119 1 16.505786416 10.053935793 10.478246411 0.0 0.0 0.0 2.95621339675e-05 -4.71278250188e-05 5.43034623143e-05
120 1 9.068977044 10.053935793 10.478246411 0.0 0.0 0.0 -2.04927502035e-05 -0.000190908832655 -0.000222430418004
121 2 16.042954883 2.025349614 3.848821218 0.0 0.0 0.0 -0.000190872000698 -0.000184876827804 6.92301456201e-05
122 2 8.606145512 2.025349614 3.848821218 0.0 0.0 0.0 0.000188827917081 4.1143628207e-05 0.000129543451907
123 2 19.761359497 8.465814928 3.848821218 0.0 0.0 0.0 0.000115526051519 0.000135782580826 -1.30856004129e-05
124 2 12.324550126 8.465814928 3.848821218 0.0 0.0 0.0 -0.000151681868581 0.000124084001186 -0.000170182177935
125 2 16.042954927 2.025349607 10.785671358 0.0 0.0 0.0 -0.00043725647068 -0.000290255839063 -0.000178980906063
126 2 8.606145555 2.025349607 10.785671358 0.0 0.0 0.0 0.000271776582571 5.52055857504e-05 -0.00013291927794
127 2 19.761359541 8.46581492 10.785671358 0.0 0.0 0.0 0.000155826251686 0.000175349204416 3.9833944713e-05
128 2 12.324550169 8.46581492 10.785671358 0.0 0.0 0.0 -0.000249411180987 0.000213706282463 0.000253871142898
129 1 16.07393341 2.079010738 4.819894452 0.0 0.0 0.0 7.79431672283e-05 9.09398541745e-05 2.36854816544e-05
130 1 8.637124038 2.079010738 4.819894452 0.0 0.0 0.0 -2.3668662872e-05 3.05237434782e-05 -3.22220550245e-06
131 1 19.792338024 8.519476052 4.819894452 0.0 0.0 0.0 -7.08201133857e-06 -1.13758173707e-05 3.98452976907e-05
132 1 12.355528653 8.519476052 4.819894452 0.0 0.0 0.0 7.29958088352e-05 1.01977923117e-05 8.12432159989e-05
133 1 16.073933453 2.079010731 11.756744592 0.0 0.0 0.0 0.000464956388941 0.000305514326087 0.000143632213752
134 1 8.637124082 2.079010731 11.756744592 0.0 0.0 0.0 -0.000167491707135 7.26947690016e-06 0.000107939977802
135 1 19.792338067 8.519476045 11.756744592 0.0 0.0 0.0 -5.91130088291e-05 -6.61353401288e-05 2.37558572113e-05
136 1 12.355528696 8.519476045 11.756744592 0.0 0.0 0.0 0.00022583156978 -0.000156935802954 -0.000101773445684
137 1 1.632167798 2.826994038 3.541396624 0.0 0.0 0.0 0.000198204899211 9.63818163484e-05 -6.6119334321e-05
138 1 9.06897717 2.826994038 3.541396624 0.0 0.0 0.0 -6.20163641991e-05 1.54876908125e-05 1.45894962928e-05
139 1 5.350572412 9.267459352 3.541396624 0.0 0.0 0.0 -5.41198358496e-05 9.88235454225e-06 9.12890214583e-05
140 1 12.787381784 9.267459352 3.541396624 0.0 0.0 0.0 0.00017391138182 4.44695391583e-05 0.000172406800125
141 1 1.632167841 2.826994031 10.478246764 0.0 0.0 0.0 0.000198145561155 4.62483620014e-05 0.000210450164086
142 1 9.068977213 2.826994031 10.478246764 0.0 0.0 0.0 -5.38186785519e-05 1.57909755091e-05 9.13897199061e-05
143 1 5.350572456 9.267459345 10.478246764 0.0 0.0 0.0 -6.23610070584e-05 6.21005517987e-06 1.38734220504e-05
144 1 12.787381827 9.267459345 10.478246764 0.0 0.0 0.0 0.000173840998349 5.88876515055e-05 -5.79281152343e-05
145 2 12.258736453 12.880930313 6.469757221 0.0 0.0 0.0 -0.000118450812747 -0.000152379287168 -3.56282722197e-05
146 2 19.695545825 12.880930313 6.469757221 0.0 0.0 0.0 1.77839982222e-05 -4.07864374678e-05 -4.97997311816e-05
147 2 8.540331839 6.440464999 6.469757221 0.0 0.0 0.0 1.25622411047e-05 0.000112805040996 -5.08691300068e-05
148 2 15.97714121 6.440464999 6.469757221 0.0 0.0 0.0 -9.94616250485e-05 4.80226448001e-05 -4.4225877217e-05
149 2 12.258736496 12.880930306 13.40660736 0.0 0.0 0.0 0.00988410052256 -0.00927579548093 -0.00401153525183
150 2 19.695545868 12.880930306 13.40660736 0.0 0.0 0.0 0.000230820646915 -0.000124508022846 -4.81149976395e-05
151 2 8.540331882 6.440464992 13.40660736 0.0 0.0 0.0 0.000151207932051 0.00041802730959 -4.03481515994e-05
152 2 15.977141254 6.440464992 13.40660736 0.0 0.0 0.0 -0.000224554394982 0.00019987276674 -5.38250542295e-05
153 1 5.331166141 0.766954845 6.788243965 0.0 0.0 0.0 -4.69452558713e-05 7.1299314345e-05 -2.71560614606e-05
154 1 12.767975512 0.766954845 6.788243965 0.0 0.0 0.0 -8.0262621761e-05 4.20880028899e-05 -2.56498732428e-05
155 1 9.049570755 7.207420159 6.788243965 0.0 0.0 0.0 -7.96082949626e-05 -3.45417706061e-05 -2.43606199335e-05
156 1 16.486380127 7.207420159 6.788243965 0.0 0.0 0.0 -4.47107798006e-05 -7.05580790233e-06 -2.43056602613e-05
157 1 5.331166184 0.766954838 13.725094105 0.0 0.0 0.0 -0.0042381797044 -0.0016884512378 -3.88001321847e-05
158 1 12.767975556 0.766954838 13.725094105 0.0 0.0 0.0 -0.000167186569785 0.000112317604524 -1.93740279637e-05
159 1 9.049570798 7.207420151 13.725094105 0.0 0.0 0.0 -0.000157452094655 -0.00027635559331 -2.53676596348e-05
160 1 16.48638017 7.207420151 13.725094105 0.0 0.0 0.0 -1.07573610235e-05 -6.21253318466e-05 -2.51806670015e-05
161 1 16.486380702 5.673510068 6.788243516 0.0 0.0 0.0 -3.11018961941e-05 -4.09572948162e-05 -2.1896002731e-05
162 1 9.04957133 5.673510068 6.788243516 0.0 0.0 0.0 -8.93928196272e-05 -6.73759925025e-05 -2.35037304641e-05
163 1 20.204785316 12.113975382 6.788243516 0.0 0.0 0.0 -9.62990628986e-05 -1.44890782269e-06 -2.36749779282e-05
164 1 12.767975944 12.113975382 6.788243516 0.0 0.0 0.0 -2.35265058983e-05 5.06355483837e-05 -1.92394017468e-05
165 1 16.486380745 5.673510061 13.725093655 0.0 0.0 0.0 7.26577283054e-05 -0.000176569959064 -2.24747275982e-05
166 1 9.049571373 5.673510061 13.725093655 0.0 0.0 0.0 -0.000148818415233 -0.000176687952602 -1.92422185904e-05
167 1 20.204785359 12.113975375 13.725093655 0.0 0.0 0.0 -0.00025773793216 2.65292610934e-05 -1.16277597596e-05
168 1 12.767975987 12.113975375 13.725093655 0.0 0.0 0.0 0.00202552501061 0.00194360864554 -0.000644123229122
169 2 12.462655523 4.175912014 6.46975888 0.0 0.0 0.0 1.11374379129e-05 -9.9827913261e-06 -5.48513420652e-05
170 2 5.025846151 4.175912014 6.46975888 0.0 0.0 0.0 2.74394200632e-05 2.76513201805e-05 -2.90335787213e-05
171 2 16.181060137 10.616377328 6.46975888 0.0 0.0 0.0 2.0973514899e-05 -8.23212974616e-05 -5.08513567478e-05
172 2 8.744250765 10.616377328 6.46975888 0.0 0.0 0.0 3.36217122029e-05 -7.50739334025e-05 -8.21635607299e-05
173 2 12.462655566 4.175912007 13.406609019 0.0 0.0 0.0 -9.04067933497e-06 3.89245851065e-05 -5.18637760358e-05
174 2 5.025846194 4.175912007 13.406609019 0.0 0.0 0.0 0.00031054900758 0.0010145814643 -0.000165200560868
175 2 16.18106018 10.616377321 13.406609019 0.0 0.0 0.0 4.94974299391e-05 -0.000224465175507 -6.09270228771e-05
176 2 8.744250808 10.616377321 13.406609019 0.0 0.0 0.0 0.00277800251771 0.00151291780301 8.74638883079e-05
177 1 4.107023344 4.233448053 6.788243333 0.0 0.0 0.0 3.18589395091e-05 -8.39219697484e-05 -2.00192467917e-05
178 1 11.543832716 4.233448053 6.788243333 0.0 0.0 0.0 1.0861004143e-06 -8.46905251409e-05 -2.08213123214e-05
179 1 7.825427958 10.673913367 6.788243333 0.0 0.0 0.0 -1.49044444e-05 -5.68898060727e-05 -2.4505494207e-05
180 1 15.26223733 10.673913367 6.788243333 0.0 0.0 0.0 3.08604841993e-05 -3.04414180979e-05 -2.03627018373e-05
181 1 4.107023387 4.233448046 13.725093473 0.0 0.0 0.0 7.67107569075e-05 -0.000727418440058 -1.27425308321e-05
182 1 11.543832759 4.233448046 13.725093473 0.0 0.0 0.0 -2.02819175919e-05 -0.000124730611175 -1.9786521336e-05
183 1 7.825428001 10.67391336 13.725093473 0.0 0.0 0.0 -0.000474488412997 -9.09690326655e-05 8.7863512846e-05
184 1 15.262237373 10.67391336 13.725093473 0.0 0.0 0.0 8.08363409989e-05 0.000112739819204 -2.0179677524e-05
185 1 12.872237203 5.00040447 6.78824545 0.0 0.0 0.0 6.59181129853e-05 -7.1623151482e-05 -2.8793800513e-05
186 1 5.435427832 5.00040447 6.78824545 0.0 0.0 0.0 2.53962410173e-05 -0.000102620889564 -2.87879864622e-05
187 1 16.590641818 11.440869783 6.78824545 0.0 0.0 0.0 2.69799952841e-05 -2.81842834189e-05 -3.04880288622e-05
188 1 9.153832446 11.440869783 6.78824545 0.0 0.0 0.0 6.50520179726e-05 2.29537632105e-06 -2.95785817732e-05
189 1 12.872237247 5.000404462 13.72509559 0.0 0.0 0.0 0.000105347287998 -0.000117537436351 -3.01881448153e-05
190 1 5.435427875 5.000404462 13.72509559 0.0 0.0 0.0 -7.09819739157e-05 -0.000324248470405 -3.70091951714e-05
191 1 16.590641861 11.440869776 13.72509559 0.0 0.0 0.0 -4.81856148296e-05 3.59624696485e-05 -2.66247272244e-05
192 1 9.153832489 11.440869776 13.72509559 0.0 0.0 0.0 -0.00514174273742 -0.00138574236779 0.000943353282776
193 2 1.307441393 2.264553585 6.469759523 0.0 0.0 0.0 -6.47091415253e-05 -4.62180485556e-05 -5.24647252286e-05
194 2 8.744250764 2.264553585 6.469759523 0.0 0.0 0.0 9.31110416328e-05 4.46962803135e-05 -3.88295972962e-05
195 2 5.025846007 8.705018899 6.469759523 0.0 0.0 0.0 7.61592236679e-05 0.000112165517707 -5.40094495257e-05
196 2 12.462655379 8.705018899 6.469759523 0.0 0.0 0.0 -5.76576516927e-05 6.3155306419e-05 -7.1626803671e-05
197 2 1.307441436 2.264553578 13.406609663 0.0 0.0 0.0 -0.00139078047387 -0.000797235281934 9.3429694288e-05
198 2 8.744250808 2.264553578 13.406609663 0.0 0.0 0.0 0.000496634179605 0.000120585884876 -9.17224562868e-05
199 2 5.02584605 8.705018892 13.406609663 0.0 0.0 0.0 0.000218024773533 0.00025383097073 -5.43533242783e-05
200 2 12.462655422 8.705018892 13.406609663 0.0 0.0 0.0 -0.000544284656511 0.000610048777657 2.43966752529e-05
201 1 1.717022388 1.440060952 6.788246651 0.0 0.0 0.0 8.99788171728e-05 0.000118820529034 -2.93779163531e-05
202 1 9.15383176 1.440060952 6.788246651 0.0 0.0 0.0 1.16795934544e-05 6.52571098597e-05 -3.32302756745e-05
203 1 5.435427002 7.880526266 6.788246651 0.0 0.0 0.0 1.67707811623e-05 2.52682733239e-06 -3.41843183151e-05
204 1 12.872236374 7.880526266 6.788246651 0.0 0.0 0.0 8.01912647585e-05 3.1489880777e-05 -3.31587496772e-05
205 1 1.717022431 1.440060945 13.725096791 0.0 0.0 0.0 0.00165574262175 0.00260027486874 -0.000922669912291
206 1 9.153831803 1.440060945 13.725096791 0.0 0.0 0.0 -0.000138551915088 8.58782215072e-05 -3.13508760622e-05
207 1 5.435427045 7.880526258 13.725096791 0.0 0.0 0.0 -5.62415753029e-05 -0.000107710984466 -2.95171182296e-05
208 1 12.872236417 7.880526258 13.725096791 0.0 0.0 0.0 0.000182570386125 -7.5752745945e-05 -2.67673769225e-05
209 1 15.262237079 2.207018097 6.788243067 0.0 0.0 0.0 3.62009470312e-05 9.42515634023e-05 -1.44323354284e-05
210 1 7.825427708 2.207018097 6.788243067 0.0 0.0 0.0 -2.17266689265e-05 6.08821212713e-05 -1.92669193946e-05
211 1 18.980641693 8.647483411 6.788243067 0.0 0.0 0.0 -6.74418554958e-06 3.28770157175e-05 -1.81099908856e-05
212 1 11.543832322 8.647483411 6.788243067 0.0 0.0 0.0 3.77960542358e-05 4.15798544623e-05 -1.53703691973e-05
213 1 15.262237122 2.207018089 13.725093207 0.0 0.0 0.0 2.96574575613e-05 0.000317913397312 -3.50830776609e-05
214 1 7.825427751 2.207018089 13.725093207 0.0 0.0 0.0 -0.000408999235315 -4.99022934952e-05 -2.6850329127e-06
215 1 18.980641736 8.647483403 13.725093207 0.0 0.0 0.0 -3.93469236524e-05 -1.31762369278e-05 -1.42913617865e-05
216 1 11.543832365 8.647483403 13.725093207 0.0 0.0 0.0 0.000248868024255 -0.000511019462527 -3.17695548334e-05
217 2 10.05169036 12.880930562 3.001331049 0.0 0.0 0.0 -0.000284891257919 -0.000929079989242 -0.000808678776254
218 2 17.488499731 12.880930562 3.001331049 0.0 0.0 0.0 0.000203561620689 -7.20620890832e-05 2.00444492395e-06
219 2 6.333285745 6.440465248 3.001331049 0.0 0.0 0.0 0.000184777589239 0.00025792416612 -9.15035723824e-07
220 2 13.770095117 6.440465248 3.001331049 0.0 0.0 0.0 -7.18985077263e-05 0.000110006125047 -7.57216177013e-05
221 2 10.051690403 12.880930555 9.938181189 0.0 0.0 0.0 -0.000260557321906 -0.000637519757373 0.000237908431518
222 2 17.488499774 12.880930555 9.938181189 0.0 0.0 0.0 0.000176634603531 -6.13554141078e-05 -8.13448320803e-05
223 2 6.333285789 6.440465241 9.938181189 0.0 0.0 0.0 0.000165063154549 0.000218028213375 -7.91540110833e-05
224 2 13.77009516 6.440465241 9.938181189 0.0 0.0 0.0 -5.49691366995e-05 9.11430053744e-05 -1.37573747312e-05
225 1 13.26085702 5.67351034 3.319819519 0.0 0.0 0.0 9.77247915702e-05 -6.02540103653e-05 -2.1113757061e-05
226 1 5.824047648 5.67351034 3.319819519 0.0 0.0 0.0 7.14584908752e-06 -0.00015100867057 -9.88666675238e-05
227 1 16.979261634 12.113975653 3.319819519 0.0 0.0 0.0 1.06010037772e-05 2.96942454082e-05 -5.03617284639e-05
228 1 9.542452262 12.113975653 3.319819519 0.0 0.0 0.0 -5.10519448229e-05 0.000114063100312 0.000407271109878
229 1 13.260857063 5.673510332 10.256669659 0.0 0.0 0.0 0.000100639403199 -6.13268564656e-05 -3.64018961212e-05
230 1 5.824047691 5.673510332 10.256669659 0.0 0.0 0.0 5.95396343642e-06 -0.000147371552663 3.81551278148e-05
231 1 16.979261677 12.113975646 10.256669659 0.0 0.0 0.0 9.31649843765e-06 2.72656662455e-05 -8.42112341365e-06
232 1 9.542452305 12.113975646 10.256669659 0.0 0.0 0.0 6.8992946793e-05 0.000197182432364 -0.000503687306772
233 1 2.105642892 0.766955018 3.319818703 0.0 0.0 0.0 0.000244990405112 0.000316792772799 -2.50760206807e-05
234 1 9.542452263 0.766955018 3.319818703 0.0 0.0 0.0 -2.84219144079e-05 4.21211724774e-05 -6.74132613734e-05
235 1 5.824047506 7.207420332 3.319818703 0.0 0.0 0.0 1.27469864175e-06 -8.04261000245e-05 -2.13173948072e-05
236 1 13.260856878 7.207420332 3.319818703 0.0 0.0 0.0 0.000131159989708 -4.42626867397e-05 1.90397965792e-05
237 1 2.105642935 0.766955011 10.256668843 0.0 0.0 0.0 0.000270922736528 0.000346965266525 1.95227163836e-05
238 1 9.542452307 0.766955011 10.256668843 0.0 0.0 0.0 -2.47661006846e-05 4.26843174912e-05 1.56034470814e-05
239 1 5.824047549 7.207420325 10.256668843 0.0 0.0 0.0 -1.103900726e-06 -8.46202980007e-05 -2.87961364046e-05
240 1 13.260856921 7.207420325 10.256668843 0.0 0.0 0.0 0.000129568478076 -4.07453029859e-05 -6.68551195526e-05
241 2 13.566178647 2.264553318 3.001331607 0.0 0.0 0.0 -1.7753015558e-05 -7.61885427983e-05 -7.40955100327e-05
242 2 6.129369276 2.264553318 3.001331607 0.0 0.0 0.0 0.000350354786591 0.000148636540831 0.000583421854992
243 2 17.284583261 8.705018632 3.001331607 0.0 0.0 0.0 -2.44727414632e-05 0.000105850981661 -3.79763082275e-05
244 2 9.84777389 8.705018632 3.001331607 0.0 0.0 0.0 2.34399492048e-05 0.000404958842405 -0.000414410501786
245 2 13.56617869 2.26455331 9.938181747 0.0 0.0 0.0 -3.34894080263e-05 -6.40104064725e-05 -2.49940717226e-05
246 2 6.129369319 2.26455331 9.938181747 0.0 0.0 0.0 0.000184352236308 6.59387553696e-05 -0.000482194301641
247 2 17.284583305 8.705018624 9.938181747 0.0 0.0 0.0 -2.00280655172e-05 0.000100051249836 -5.43190903856e-05
248 2 9.847773933 8.705018624 9.938181747 0.0 0.0 0.0 -1.2879703836e-05 0.000288360329608 0.000251400259751
249 1 14.485000752 2.20701716 3.319818255 0.0 0.0 0.0 2.70071471183e-05 0.000149677994329 -1.59520623878e-05
250 1 7.048191381 2.20701716 3.319818255 0.0 0.0 0.0 -0.000156623076588 4.0294525108e-05 -0.000155615058505
251 1 18.203405367 8.647482473 3.319818255 0.0 0.0 0.0 -4.55568204176e-05 1.61021857707e-05 -2.6950188974e-05
252 1 10.766595995 8.647482473 3.319818255 0.0 0.0 0.0 5.03910367764e-05 -7.42408605574e-05 0.000150656302254
253 1 14.485000796 2.207017152 10.256668395 0.0 0.0 0.0 4.13764239643e-05 0.000152070449881 -2.77266579618e-05
254 1 7.048191424 2.207017152 10.256668395 0.0 0.0 0.0 -0.000156966005524 3.69659144129e-05 0.000114451756053
255 1 18.20340541 8.647482466 10.256668395 0.0 0.0 0.0 -4.68122472781e-05 1.49741641899e-05 -2.4853740911e-05
256 1 10.766596038 8.647482466 10.256668395 0.0 0.0 0.0 5.05653393283e-05 -6.71510238471e-05 -0.000196274603269
257 1 5.719786092 1.440061854 3.319818129 0.0 0.0 0.0 -0.000149451104547 0.000153436045628 -0.000444297946458
258 1 13.156595464 1.440061854 3.319818129 0.0 0.0 0.0 -8.96838662673e-05 9.44136368543e-05 7.50559524008e-07
259 1 9.438190706 7.880527168 3.319818129 0.0 0.0 0.0 -9.28629026555e-05 -8.75547511165e-05 5.26470097413e-05
260 1 16.875000078 7.880527168 3.319818129 0.0 0.0 0.0 -1.43577721436e-05 -1.96083661239e-07 -3.36471120049e-05
261 1 5.719786135 1.440061847 10.256668269 0.0 0.0 0.0 -0.000141763163857 0.00014209216024 0.000336084721111
262 1 13.156595507 1.440061847 10.256668269 0.0 0.0 0.0 -8.72608336813e-05 0.000103430187737 -4.98154130707e-05
263 1 9.438190749 7.880527161 10.256668269 0.0 0.0 0.0 -8.83040437295e-05 -9.82398034127e-05 -0.000108239455438
264 1 16.875000121 7.880527161 10.256668269 0.0 0.0 0.0 -1.70976864129e-05 -9.06798887319e-07 -1.27971562425e-05
265 2 2.410964342 4.175911908 3.001332195 0.0 0.0 0.0 -0.000258702040597 0.000157371605593 0.000221897164268
266 2 9.847773713 4.175911908 3.001332195 0.0 0.0 0.0 9.4442992671e-05 9.14233218969e-05 -2.81017478145e-05
267 2 6.129368956 10.616377222 3.001332195 0.0 0.0 0.0 0.000223662422018 -2.22008148724e-05 -0.000204509512782
268 2 13.566178327 10.616377222 3.001332195 0.0 0.0 0.0 -0.000320996069372 -0.000325916091909 -0.000136870742244
269 2 2.410964385 4.175911901 9.938182334 0.0 0.0 0.0 -0.000189170786232 0.000102732481653 -0.00027321579357
270 2 9.847773757 4.175911901 9.938182334 0.0 0.0 0.0 7.43292957268e-05 7.13678228128e-05 -6.46670680644e-05
271 2 6.129368999 10.616377215 9.938182334 0.0 0.0 0.0 0.000187650311214 -2.12263959916e-05 0.000111237753571
272 2 13.566178371 10.616377215 9.938182334 0.0 0.0 0.0 -0.000217186957999 -0.000251503037676 1.19776858314e-05