ITEM: TIMESTEP
0
ITEM: NUMBER OF ATOMS
288
ITEM: BOX BOUNDS xy xz yz xx yy zz
0.0 14.873618743 7.436809228
0.0 12.880930628 8.6e-08
0.0 13.87370028 -1.5e-08
ITEM: ATOMS id type x y z vx vy vz fx fy fz
1 2 2.338671397 1.12e-07 0.380392751 0.0 0.0 0.0 0.000219381888459 4.97917574699e-07 0.000899053223109
2 2 9.775480768 1.12e-07 0.380392751 0.0 0.0 0.0 -8.03638087543e-05 4.9815550424e-07 0.000403504827319
3 2 6.057076011 6.440465426 0.380392751 0.0 0.0 0.0 2.50107320265e-05 -4.38581592148e-05 0.000255991461264
4 2 13.493885382 6.440465426 0.380392751 0.0 0.0 0.0 2.50246114568e-05 4.48529974513e-05 0.000255996708295
5 2 2.33867144 1.04e-07 7.317242891 0.0 0.0 0.0 -0.0248726651366 5.05402794282e-07 -0.000901196747818
6 2 9.775480812 1.04e-07 7.317242891 0.0 0.0 0.0 0.000362419104981 5.03823639806e-07 -0.000577815437405
7 2 6.057076054 6.440465418 7.317242891 0.0 0.0 0.0 3.8171113759e-05 8.44828719445e-05 -0.000270925525437
8 2 13.493885426 6.440465418 7.317242891 0.0 0.0 0.0 3.81263285736e-05 -8.34806032555e-05 -0.000270912621382
9 1 2.400632363 4.61e-07 1.351465958 0.0 0.0 0.0 -0.00023730756949 -1.85053195928e-06 -0.00046331514351
10 1 9.837441735 4.61e-07 1.351465958 0.0 0.0 0.0 0.000186358735562 -1.85062671267e-06 -0.00013826245298
11 1 6.119036977 6.440465774 1.351465958 0.0 0.0 0.0 4.57651194095e-05 5.28905446762e-05 -5.34772259622e-05
12 1 13.555846349 6.440465774 1.351465958 0.0 0.0 0.0 4.57596875646e-05 -5.65866053208e-05 -5.34795289052e-05
13 1 2.400632406 4.53e-07 8.288316098 0.0 0.0 0.0 0.00215953183171 -1.85045708036e-06 -0.000575961305173
14 1 9.837441778 4.53e-07 8.288316098 0.0 0.0 0.0 -0.00029555673344 -1.8498157935e-06 0.000169543978591
15 1 6.11903702 6.440465767 8.288316098 0.0 0.0 0.0 3.24650471342e-05 -8.92337443004e-05 0.00012172158006
16 1 13.555846392 6.440465767 8.288316098 0.0 0.0 0.0 3.24652992611e-05 8.55337565571e-05 0.000121721245758
17 1 10.701141082 12.880930558 0.072968506 0.0 0.0 0.0 3.91816384265e-05 4.34877226729e-07 -0.000487896268234
18 1 18.137950453 12.880930558 0.072968506 0.0 0.0 0.0 6.67632389755e-05 4.34736993352e-07 -8.56297436527e-05
19 1 6.982736468 6.440465244 0.072968506 0.0 0.0 0.0 6.23253811898e-05 4.17071641538e-06 -6.86223628546e-05
20 1 14.419545839 6.440465244 0.072968506 0.0 0.0 0.0 6.23229904359e-05 -3.30093877446e-06 -6.86251409992e-05
21 1 10.701141125 12.880930551 7.009818646 0.0 0.0 0.0 0.00795098990798 4.31200388727e-07 0.00886847950693
22 1 18.137950497 12.880930551 7.009818646 0.0 0.0 0.0 6.12939465363e-05 4.31842192094e-07 0.000243410965322
23 1 6.982736511 6.440465237 7.009818646 0.0 0.0 0.0 5.91074337413e-05 -7.16637533735e-06 0.000207359843895
24 1 14.419545882 6.440465237 7.009818646 0.0 0.0 0.0 5.9145664081e-05 8.0294556652e-06 0.000207349299119
25 2 13.704282012 2.025348059 0.380394512 0.0 0.0 0.0 2.5803730668e-05 9.13469021591e-06 0.000248613892231
26 2 6.26747264 2.025348059 0.380394512 0.0 0.0 0.0 -0.000109379317536 -0.000137183554139 0.000895039676523
27 2 17.422686626 8.465813373 0.380394512 0.0 0.0 0.0 -5.07574949056e-05 5.33802310737e-05 0.000248785214167
28 2 9.985877254 8.465813373 0.380394512 0.0 0.0 0.0 3.99991321688e-05 0.000121912266935 0.000394562793415
29 2 13.704282055 2.025348052 7.317244652 0.0 0.0 0.0 -9.12308620158e-05 6.16807714819e-05 -0.000277756263175
30 2 6.267472684 2.025348052 7.317244652 0.0 0.0 0.0 0.0137857698193 0.0201586175693 -0.00102772068243
31 2 17.422686669 8.465813365 7.317244652 0.0 0.0 0.0 5.35983811165e-05 -2.20771649365e-05 -0.000278302458785
32 2 9.985877298 8.465813365 7.317244652 0.0 0.0 0.0 -0.000179624557862 -0.000257428575356 -0.000580778072156
33 1 13.673300338 2.079010187 1.351467718 0.0 0.0 0.0 -6.55914248346e-05 5.10914961768e-05 -6.21553452788e-05
34 1 6.236490966 2.079010187 1.351467718 0.0 0.0 0.0 0.000132679392552 0.000266342743325 -0.000501567368758
35 1 17.391704952 8.519475501 1.351467718 0.0 0.0 0.0 2.70071867e-05 -2.35180828076e-08 -5.77496514034e-05
36 1 9.95489558 8.519475501 1.351467718 0.0 0.0 0.0 -8.02639447333e-05 -9.02161648107e-05 -0.000132638503772
37 1 13.673300381 2.07901018 8.288317858 0.0 0.0 0.0 6.92038972611e-05 -6.99701326647e-06 0.000116759810811
38 1 6.236491009 2.07901018 8.288317858 0.0 0.0 0.0 -0.00133352404928 -0.0020789588173 -0.000733968892465
39 1 17.391704995 8.519475493 8.288317858 0.0 0.0 0.0 -7.84500565361e-05 7.42147584874e-05 0.000112370124906
40 1 9.954895623 8.519475493 8.288317858 0.0 0.0 0.0 0.000131103646448 0.000289648312088 0.000152185471875
41 1 13.241451457 2.826992613 0.072968839 0.0 0.0 0.0 -3.13331153149e-05 6.24682372938e-05 -5.19517593227e-05
42 1 5.804642085 2.826992613 0.072968839 0.0 0.0 0.0 -3.0032710283e-05 9.28188356204e-05 -0.000298956118427
43 1 16.959856071 9.267457927 0.072968839 0.0 0.0 0.0 -1.63330970401e-05 4.9243514565e-05 -0.000106303380024
44 1 9.523046699 9.267457927 0.072968839 0.0 0.0 0.0 -4.88402609571e-05 4.3015713328e-05 -0.000176190668519
45 1 13.2414515 2.826992606 7.009818978 0.0 0.0 0.0 -3.06178927807e-05 5.71640589142e-05 0.000178270777327
46 1 5.804642128 2.826992606 7.009818978 0.0 0.0 0.0 0.000119730554326 -0.000177321825672 0.00157345662275
47 1 16.959856114 9.26745792 7.009818978 0.0 0.0 0.0 -6.76110496117e-05 8.88297862523e-05 0.000286672357572
48 1 9.523046743 9.26745792 7.009818978 0.0 0.0 0.0 4.73726692176e-05 0.00014255273295 0.000510105260995
49 2 17.422687622 4.415117298 0.380394729 0.0 0.0 0.0 3.97394678749e-05 -0.000122214731886 0.000395526228999
50 2 9.985878251 4.415117298 0.380394729 0.0 0.0 0.0 -5.10184473896e-05 -5.368398794e-05 0.000249749951567
51 2 21.141092236 10.855582612 0.380394729 0.0 0.0 0.0 2.55594598262e-05 -9.42282048255e-06 0.000249582533598
52 2 13.704282865 10.855582612 0.380394729 0.0 0.0 0.0 -0.000109642398437 0.000136879762567 0.000896006917349
53 2 17.422687665 4.415117291 7.317244869 0.0 0.0 0.0 -0.000179864743256 0.00025714597998 -0.000579810158543
54 2 9.985878294 4.415117291 7.317244869 0.0 0.0 0.0 5.33379889156e-05 2.17659061771e-05 -0.000277335185545
55 2 21.14109228 10.855582605 7.317244869 0.0 0.0 0.0 -9.15129709809e-05 -6.20249071728e-05 -0.000276800005745
56 2 13.704282908 10.855582605 7.317244869 0.0 0.0 0.0 0.0137855234146 -0.0201589262113 -0.00102676233362
57 1 2.518088606 4.36145465 1.351467896 0.0 0.0 0.0 -8.58668743327e-05 9.21592776297e-05 -0.000131356454973
58 1 9.954897977 4.36145465 1.351467896 0.0 0.0 0.0 2.14079077022e-05 1.96827641896e-06 -5.64689244845e-05
59 1 6.23649322 10.801919964 1.351467896 0.0 0.0 0.0 -7.11937032405e-05 -4.91491496936e-05 -6.08738506904e-05
60 1 13.673302591 10.801919964 1.351467896 0.0 0.0 0.0 0.00012707958355 -0.00026439830693 -0.000500287037667
61 1 2.518088649 4.361454643 8.288318036 0.0 0.0 0.0 0.000125500120452 -0.00028770530585 0.000153471498666
62 1 9.95489802 4.361454643 8.288318036 0.0 0.0 0.0 -8.40464687585e-05 -7.22674221493e-05 0.000113653475793
63 1 6.236493263 10.801919957 8.288318036 0.0 0.0 0.0 6.36082323988e-05 8.94509522362e-06 0.000118043486771
64 1 13.673302635 10.801919957 8.288318036 0.0 0.0 0.0 -0.00133912664607 0.00208089784208 -0.00073268182131
65 1 16.959856167 3.613473172 0.07296928 0.0 0.0 0.0 -4.65615272367e-05 -4.40030559048e-05 -0.000176157185072
66 1 9.523046796 3.613473172 0.07296928 0.0 0.0 0.0 -1.40534055152e-05 -5.02298643479e-05 -0.000106271740286
67 1 20.678260782 10.053938486 0.07296928 0.0 0.0 0.0 -2.90650255987e-05 -6.34697444228e-05 -5.19229988229e-05
68 1 13.24145141 10.053938486 0.07296928 0.0 0.0 0.0 -2.77531978016e-05 -9.38056652409e-05 -0.000298924233997
69 1 16.959856211 3.613473164 7.00981942 0.0 0.0 0.0 4.96365794016e-05 -0.0001435621809 0.000510125228712
70 1 9.523046839 3.613473164 7.00981942 0.0 0.0 0.0 -6.5334953662e-05 -8.98215176285e-05 0.000286694904489
71 1 20.678260825 10.053938478 7.00981942 0.0 0.0 0.0 -2.83272547088e-05 -5.81266921782e-05 0.000178302628816
72 1 13.241451453 10.053938478 7.00981942 0.0 0.0 0.0 0.000122009655088 0.000176343474704 0.00157348850349
73 2 5.098138192 9.1e-08 3.848820961 0.0 0.0 0.0 -0.00626918440195 -9.77819005752e-07 0.0660207964419
74 2 12.534947564 9.1e-08 3.848820961 0.0 0.0 0.0 -3.11078485722e-05 -9.69855469268e-07 -7.45659036957e-05
75 2 8.816542806 6.440465404 3.848820961 0.0 0.0 0.0 -3.06781311923e-05 -1.19907519117e-06 -7.45705538293e-05
76 2 16.253352178 6.440465404 3.848820961 0.0 0.0 0.0 -3.06843885787e-05 -7.17670223693e-07 -7.45631872687e-05
77 2 5.098138235 8.3e-08 10.785671101 0.0 0.0 0.0 -3.58257631418e-05 -9.65413184938e-07 0.00255950827093
78 2 12.534947607 8.3e-08 10.785671101 0.0 0.0 0.0 -3.01239111695e-05 -9.65631166361e-07 0.000124247250675
79 2 8.816542849 6.440465397 10.785671101 0.0 0.0 0.0 -3.04864457958e-05 -6.28184318461e-07 0.000124260803591
80 2 16.253352221 6.440465397 10.785671101 0.0 0.0 0.0 -3.0492894194e-05 -1.30219088779e-06 0.000124259589701
81 1 12.472986142 12.880930033 4.819894401 0.0 0.0 0.0 0.00148758037411 1.9387670685e-06 -0.022325957015
82 1 19.909795513 12.880930033 4.819894401 0.0 0.0 0.0 -4.87149313868e-05 1.94568544571e-06 0.000144142350695
83 1 8.754581528 6.440464719 4.819894401 0.0 0.0 0.0 -4.26252960618e-05 -1.57365868511e-06 0.000144069572356
84 1 16.191390899 6.440464719 4.819894401 0.0 0.0 0.0 -4.26205913328e-05 5.46046204096e-06 0.00014406746305
85 1 12.472986185 12.880930026 11.756744541 0.0 0.0 0.0 -5.88582743877e-05 1.9445242127e-06 -0.00063914951326
86 1 19.909795557 12.880930026 11.756744541 0.0 0.0 0.0 -3.7552264551e-05 1.94432490361e-06 -7.95977994202e-05
87 1 8.754581571 6.440464712 11.756744541 0.0 0.0 0.0 -4.1397412613e-05 4.16350814713e-06 -7.9521214257e-05
88 1 16.191390943 6.440464712 11.756744541 0.0 0.0 0.0 -4.1397526892e-05 -2.75268865729e-07 -7.95209978133e-05
89 1 4.172478132 1.2e-08 3.541396305 0.0 0.0 0.0 -0.00160900670113 -2.66512999217e-07 -0.00189579417587
90 1 11.609287504 1.2e-08 3.541396305 0.0 0.0 0.0 2.20986325545e-05 -2.66277768154e-07 5.64571337894e-05
91 1 7.890882746 6.440465326 3.541396305 0.0 0.0 0.0 -5.80102967453e-05 4.31677015695e-05 5.83043033146e-05
92 1 15.327692118 6.440465326 3.541396305 0.0 0.0 0.0 -5.80089193932e-05 -4.37053356036e-05 5.83008638876e-05
93 1 4.172478175 5e-09 10.478246445 0.0 0.0 0.0 0.000504650455791 -2.68241990271e-07 -0.00152452883291
94 1 11.609287547 5e-09 10.478246445 0.0 0.0 0.0 -0.000142698416973 -2.68068795828e-07 1.56910748216e-05
95 1 7.890882789 6.440465319 10.478246445 0.0 0.0 0.0 -7.33009448422e-05 -3.8291645578e-05 2.22648340533e-05
96 1 15.327692161 6.440465319 10.478246445 0.0 0.0 0.0 -7.32988574368e-05 3.7754889671e-05 2.22653013021e-05
97 2 12.324550744 4.415115375 3.848820709 0.0 0.0 0.0 1.27049244441e-05 -2.35658227145e-05 -6.00672472917e-05
98 2 4.887741372 4.415115375 3.848820709 0.0 0.0 0.0 1.46710017004e-05 -0.000920786919018 4.03006459412e-06
99 2 16.042955358 10.855580689 3.848820709 0.0 0.0 0.0 -0.000767483320571 0.000427640346267 4.95016279921e-06
100 2 8.606145986 10.855580689 3.848820709 0.0 0.0 0.0 0.000786382443067 0.000421610047842 2.26553689081e-06
101 2 12.324550787 4.415115367 10.785670849 0.0 0.0 0.0 1.33280833341e-05 -2.38171879823e-05 9.86585012335e-05
102 2 4.887741415 4.415115367 10.785670849 0.0 0.0 0.0 1.21902711231e-05 0.000482861613786 0.000409676204033
103 2 16.042955401 10.855580681 10.785670849 0.0 0.0 0.0 0.000453313167735 -0.000278159044889 0.000411833634603
104 2 8.606146029 10.855580681 10.785670849 0.0 0.0 0.0 -0.000424951865621 -0.000275858827524 0.000408476625175
105 1 12.355530592 4.361455296 4.81989398 0.0 0.0 0.0 2.41184012646e-05 -3.56197441409e-05 0.000123994669071
106 1 4.91872122 4.361455296 4.81989398 0.0 0.0 0.0 1.71247461543e-05 0.000403223667721 0.000323637014338
107 1 16.073935206 10.801920609 4.81989398 0.0 0.0 0.0 0.000467355415598 -0.000283449261229 0.000337515210659
108 1 8.637125834 10.801920609 4.81989398 0.0 0.0 0.0 -0.000389033618964 -0.000258051390397 0.000329705286403
109 1 12.355530635 4.361455288 11.75674412 0.0 0.0 0.0 2.2183824563e-05 -3.23566295423e-05 -5.34667160606e-05
110 1 4.918721263 4.361455288 11.75674412 0.0 0.0 0.0 2.49141857342e-05 -0.000146127234652 -0.000202207147778
111 1 16.073935249 10.801920602 11.75674412 0.0 0.0 0.0 -8.45174421081e-05 2.61702733252e-05 -0.000221786350333
112 1 8.637125877 10.801920602 11.75674412 0.0 0.0 0.0 0.000126574449877 2.16877418072e-05 -0.000211099039526
113 1 12.787381758 3.613470486 3.541396271 0.0 0.0 0.0 1.03664001458e-05 -3.39178125587e-05 6.26362253764e-05
114 1 5.350572387 3.613470486 3.541396271 0.0 0.0 0.0 0.000120344822043 0.000621000378285 -0.000195269421818
115 1 16.505786372 10.0539358 3.541396271 0.0 0.0 0.0 0.000186277337409 -0.000177627862649 2.83286148154e-05
116 1 9.068977001 10.0539358 3.541396271 0.0 0.0 0.0 -0.000239790341086 -0.000322211116889 -3.27415361039e-05
117 1 12.787381802 3.613470479 10.478246411 0.0 0.0 0.0 4.63409329018e-05 -7.25336376098e-05 3.24341141765e-05
118 1 5.35057243 3.613470479 10.478246411 0.0 0.0 0.0 -3.13956607078e-05 -0.000523531812655 -0.0002615889131
119 1 16.505786416 10.053935793 10.478246411 0.0 0.0 0.0 -0.000129517765497 6.32912296222e-05 -1.52486294364e-05
120 1 9.068977044 10.053935793 10.478246411 0.0 0.0 0.0 0.000255350895917 0.000159449309827 -9.72152811124e-05
121 2 16.042954883 2.025349614 3.848821218 0.0 0.0 0.0 0.0007874829969 -0.000421069731212 2.17761530963e-06
122 2 8.606145512 2.025349614 3.848821218 0.0 0.0 0.0 -0.000766369991999 -0.000427087920135 4.85416213472e-06
123 2 19.761359497 8.465814928 3.848821218 0.0 0.0 0.0 1.38229943614e-05 2.41284699427e-05 -6.01560829857e-05
124 2 12.324550126 8.465814928 3.848821218 0.0 0.0 0.0 1.57718876219e-05 0.000921328820954 3.94777755905e-06
125 2 16.042954927 2.025349607 10.785671358 0.0 0.0 0.0 -0.000423853344217 0.000276420072787 0.000408395346789
126 2 8.606145555 2.025349607 10.785671358 0.0 0.0 0.0 0.00045443166094 0.000278739273059 0.000411750080034
127 2 19.761359541 8.46581492 10.785671358 0.0 0.0 0.0 1.44624341336e-05 2.44358454216e-05 9.85647240939e-05
128 2 12.324550169 8.46581492 10.785671358 0.0 0.0 0.0 1.33280556251e-05 -0.000482235485101 0.000409589758999
129 1 16.07393341 2.079010738 4.819894452 0.0 0.0 0.0 -0.000384231546075 0.000255056289612 0.000329819860618
130 1 8.637124038 2.079010738 4.819894452 0.0 0.0 0.0 0.000472158827704 0.000280455802078 0.000337631817534
131 1 19.792338024 8.519476052 4.819894452 0.0 0.0 0.0 2.89172601759e-05 3.26187188884e-05 0.000124107998331
132 1 12.355528653 8.519476052 4.819894452 0.0 0.0 0.0 2.1923901088e-05 -0.000406224648433 0.00032375018727
133 1 16.073933453 2.079010731 11.756744592 0.0 0.0 0.0 0.000131376124675 -2.46863822353e-05 -0.00021098740463
134 1 8.637124082 2.079010731 11.756744592 0.0 0.0 0.0 -7.97185383031e-05 -2.91711125484e-05 -0.000221676395563
135 1 19.792338067 8.519476045 11.756744592 0.0 0.0 0.0 2.69833921325e-05 2.93521542522e-05 -5.33559352789e-05
136 1 12.355528696 8.519476045 11.756744592 0.0 0.0 0.0 2.9711104365e-05 0.000143120701381 -0.000202098773918
137 1 1.632167798 2.826994038 3.541396624 0.0 0.0 0.0 -0.000241660663188 0.000324340524423 -3.26342424204e-05
138 1 9.06897717 2.826994038 3.541396624 0.0 0.0 0.0 0.000184396996469 0.000179743191394 2.84425363573e-05
139 1 5.350572412 9.267459352 3.541396624 0.0 0.0 0.0 8.48591305991e-06 3.60314994312e-05 6.27446173382e-05
140 1 12.787381784 9.267459352 3.541396624 0.0 0.0 0.0 0.000118474634778 -0.000618870329331 -0.000195166465503
141 1 1.632167841 2.826994031 10.478246764 0.0 0.0 0.0 0.000253477625652 -0.000157332670805 -9.71072704838e-05
142 1 9.068977213 2.826994031 10.478246764 0.0 0.0 0.0 -0.000131402235868 -6.1190644407e-05 -1.51370296525e-05
143 1 5.350572456 9.267459345 10.478246764 0.0 0.0 0.0 4.44412314254e-05 7.46046820521e-05 3.2553942781e-05
144 1 12.787381827 9.267459345 10.478246764 0.0 0.0 0.0 -3.32967835578e-05 0.00052560144271 -0.000261471115758
145 2 12.258736453 12.880930313 6.479757221 0.0 0.0 0.0 -0.181103715515 -8.64145394528e-07 -0.198272132075
146 2 19.695545825 12.880930313 6.469757221 0.0 0.0 0.0 -4.45837490539e-05 -7.24745894376e-07 -0.00034208020439
147 2 8.540331839 6.440464999 6.469757221 0.0 0.0 0.0 -4.45685013889e-05 -7.07234945341e-07 -0.000342072201474
148 2 15.97714121 6.440464999 6.469757221 0.0 0.0 0.0 -4.4530236844e-05 -7.07183256686e-07 -0.000342057642768
149 2 12.258736496 12.880930306 13.40660736 0.0 0.0 0.0 -4.46052651345e-05 -7.05251551036e-07 0.00113951211799
150 2 19.695545868 12.880930306 13.40660736 0.0 0.0 0.0 -4.46104614234e-05 -7.01984028673e-07 0.000196931211745
151 2 8.540331882 6.440464992 13.40660736 0.0 0.0 0.0 -4.46186478677e-05 -7.31589888479e-07 0.000196922959937
152 2 15.977141254 6.440464992 13.40660736 0.0 0.0 0.0 -4.46240991535e-05 -7.28570097428e-07 0.000196923032019
153 1 5.331166141 0.766954845 6.788243965 0.0 0.0 0.0 0.0878883417145 0.0833601871522 0.0745621421947
154 1 12.767975512 0.766954845 6.788243965 0.0 0.0 0.0 -5.58634499753e-05 1.51486853911e-05 0.0001224079683
155 1 9.049570755 7.207420159 6.788243965 0.0 0.0 0.0 -5.42518629165e-05 2.87774768059e-05 0.0001457333409
156 1 16.486380127 7.207420159 6.788243965 0.0 0.0 0.0 -6.64450093248e-05 2.23034398123e-05 0.000126000928684
157 1 5.331166184 0.766954838 13.725094105 0.0 0.0 0.0 -5.37351722036e-05 3.28119051697e-05 -0.000591238094442
158 1 12.767975556 0.766954838 13.725094105 0.0 0.0 0.0 -6.39693022596e-05 1.83157411473e-05 -0.000146137542423
159 1 9.049570798 7.207420151 13.725094105 0.0 0.0 0.0 -6.45962268546e-05 1.15944295366e-05 -0.000157984711422
160 1 16.48638017 7.207420151 13.725094105 0.0 0.0 0.0 -5.84999431085e-05 1.46371725077e-05 -0.000148007331358
161 1 16.486380702 5.673510068 6.788243516 0.0 0.0 0.0 -5.43823496849e-05 -2.88980725036e-05 0.000148285869044
162 1 9.04957133 5.673510068 6.788243516 0.0 0.0 0.0 -6.65421401907e-05 -2.24491026883e-05 0.000128570443392
163 1 20.204785316 12.113975382 6.788243516 0.0 0.0 0.0 -5.59884606128e-05 -1.52652474488e-05 0.000124962943175
164 1 12.767975944 12.113975382 6.788243516 0.0 0.0 0.0 0.0878882107021 -0.0833601556138 0.0745645955215
165 1 16.486380745 5.673510061 13.725093655 0.0 0.0 0.0 -6.47198279408e-05 -1.17105028727e-05 -0.000155427519695
166 1 9.049571373 5.673510061 13.725093655 0.0 0.0 0.0 -5.86229290093e-05 -1.47523737969e-05 -0.000145450818993
167 1 20.204785359 12.113975375 13.725093655 0.0 0.0 0.0 -6.40770830871e-05 -1.84577256998e-05 -0.000143570538095
168 1 12.767975987 12.113975375 13.725093655 0.0 0.0 0.0 -5.38428444833e-05 -3.29525578759e-05 -0.000588671578733
169 2 12.462655523 4.175912014 6.46975888 0.0 0.0 0.0 1.73687231136e-05 -4.1149819982e-05 -0.000278269568541
170 2 5.025846151 4.175912014 6.46975888 0.0 0.0 0.0 1.73898751798e-05 -4.39384488998e-05 -0.00112224889082
171 2 16.181060137 10.616377328 6.46975888 0.0 0.0 0.0 1.49067456259e-05 -3.97551975618e-05 -0.00113768405192
172 2 8.744250765 10.616377328 6.46975888 0.0 0.0 0.0 1.98025417652e-05 -3.97897904076e-05 -0.00112226312438
173 2 12.462655566 4.175912007 13.406609019 0.0 0.0 0.0 1.73845501524e-05 -4.12024393925e-05 0.000145991170709
174 2 5.025846194 4.175912007 13.406609019 0.0 0.0 0.0 1.7382769006e-05 -4.0609592981e-05 0.000437231857666
175 2 16.18106018 10.616377321 13.406609019 0.0 0.0 0.0 1.78970996281e-05 -4.14986876483e-05 0.000439678743395
176 2 8.744250808 10.616377321 13.406609019 0.0 0.0 0.0 1.68722999844e-05 -4.14933227478e-05 0.000437231828732
177 1 4.107023344 4.233448053 6.788243333 0.0 0.0 0.0 3.80256983716e-05 -0.000180215827059 0.000499041774926
178 1 11.543832716 4.233448053 6.788243333 0.0 0.0 0.0 1.03043062152e-05 -6.2565540366e-05 9.8115836818e-05
179 1 7.825427958 10.673913367 6.788243333 0.0 0.0 0.0 6.92051309763e-05 -3.45460801428e-05 0.000211484237729
180 1 15.26223733 10.673913367 6.788243333 0.0 0.0 0.0 -0.00018476813676 9.20074709253e-05 0.001035726495
181 1 4.107023387 4.233448046 13.725093473 0.0 0.0 0.0 9.37294545823e-06 -3.61436837981e-05 -0.000263903437633
182 1 11.543832759 4.233448046 13.725093473 0.0 0.0 0.0 1.67226120878e-05 -6.05826965276e-05 -0.000124093687224
183 1 7.825428001 10.67391336 13.725093473 0.0 0.0 0.0 -3.17594820762e-06 -6.98775683911e-05 -0.000188085023524
184 1 15.262237373 10.67391336 13.725093473 0.0 0.0 0.0 3.87457944815e-05 -8.00640114573e-05 -0.000351499239532
185 1 12.872237203 5.00040447 6.78824545 0.0 0.0 0.0 4.84192864129e-05 -4.69571454984e-05 8.8613783144e-05
186 1 5.435427832 5.00040447 6.78824545 0.0 0.0 0.0 4.14473889843e-05 -0.000114358504272 0.000217985089195
187 1 16.590641818 11.440869783 6.78824545 0.0 0.0 0.0 -5.57786704488e-05 -1.47493733225e-05 0.000432221581893
188 1 9.153832446 11.440869783 6.78824545 0.0 0.0 0.0 0.000293794537968 5.9029691938e-05 0.00109994734216
189 1 12.872237247 5.000404462 13.72509559 0.0 0.0 0.0 4.64657521746e-05 -5.26573901601e-05 -0.00013257792763
190 1 5.435427875 5.000404462 13.72509559 0.0 0.0 0.0 4.89710148177e-05 -3.0673509885e-05 -0.000201876889553
191 1 16.590641861 11.440869776 13.72509559 0.0 0.0 0.0 7.05831280709e-05 -5.87074532482e-05 -0.000259862844901
192 1 9.153832489 11.440869776 13.72509559 0.0 0.0 0.0 1.87501196983e-05 -6.32159186704e-05 -0.000369418163371
193 2 1.307441393 2.264553585 6.469759523 0.0 0.0 0.0 1.75558646472e-05 4.11568939212e-05 -0.00112232689666
194 2 8.744250764 2.264553585 6.469759523 0.0 0.0 0.0 1.27220219566e-05 4.11170190601e-05 -0.00113775849226
195 2 5.025846007 8.705018899 6.469759523 0.0 0.0 0.0 1.51299763283e-05 4.25500138884e-05 -0.000278341050175
196 2 12.462655379 8.705018899 6.469759523 0.0 0.0 0.0 1.51384019313e-05 4.5344080453e-05 -0.00112232679474
197 2 1.307441436 2.264553578 13.406609663 0.0 0.0 0.0 1.46337058994e-05 4.2874228193e-05 0.000437147846127
198 2 8.744250808 2.264553578 13.406609663 0.0 0.0 0.0 1.56527674022e-05 4.28790323395e-05 0.000439597050326
199 2 5.02584605 8.705018892 13.406609663 0.0 0.0 0.0 1.51594403208e-05 4.2548508397e-05 0.000145918662106
200 2 12.462655422 8.705018892 13.406609663 0.0 0.0 0.0 1.51519176677e-05 4.19621284915e-05 0.000437159862441
201 1 1.717022388 1.440060952 6.788246651 0.0 0.0 0.0 0.000294297849845 -5.72217798583e-05 0.00109661935694
202 1 9.15383176 1.440060952 6.788246651 0.0 0.0 0.0 -5.52876509931e-05 1.65712684181e-05 0.000428890861569
203 1 5.435427002 7.880526266 6.788246651 0.0 0.0 0.0 4.89224593165e-05 4.87474848892e-05 8.52939749079e-05
204 1 12.872236374 7.880526266 6.788246651 0.0 0.0 0.0 4.19617748453e-05 0.0001161371095 0.000214669681704
205 1 1.717022431 1.440060945 13.725096791 0.0 0.0 0.0 1.92590229571e-05 6.50130654656e-05 -0.000372738629922
206 1 9.153831803 1.440060945 13.725096791 0.0 0.0 0.0 7.10923874324e-05 6.05043572087e-05 -0.00026318346516
207 1 5.435427045 7.880526258 13.725096791 0.0 0.0 0.0 4.69628944076e-05 5.44848319869e-05 -0.000135909508789
208 1 12.872236417 7.880526258 13.725096791 0.0 0.0 0.0 4.94666373453e-05 3.24991090416e-05 -0.000205207307876
209 1 15.262237079 2.207018097 6.788243067 0.0 0.0 0.0 6.71623780433e-05 3.27042302597e-05 0.000215183351907
210 1 7.825427708 2.207018097 6.788243067 0.0 0.0 0.0 -0.000186848583462 -9.38543460817e-05 0.00103944038567
211 1 18.980641693 8.647483411 6.788243067 0.0 0.0 0.0 8.26130272569e-06 6.07180348929e-05 0.000101817773018
212 1 11.543832322 8.647483411 6.788243067 0.0 0.0 0.0 3.59819107073e-05 0.000178370963983 0.000502743834473
213 1 15.262237122 2.207018089 13.725093207 0.0 0.0 0.0 -5.22977729545e-06 6.80352325982e-05 -0.000184379021161
214 1 7.825427751 2.207018089 13.725093207 0.0 0.0 0.0 3.66937612386e-05 7.82216605348e-05 -0.000347794520868
215 1 18.980641736 8.647483403 13.725093207 0.0 0.0 0.0 1.46690238938e-05 5.87415886946e-05 -0.000120388228298
216 1 11.543832365 8.647483403 13.725093207 0.0 0.0 0.0 7.32084028548e-06 3.43019196737e-05 -0.000260198883135
217 2 10.05169036 12.880930562 3.001331049 0.0 0.0 0.0 0.0016640029744 1.18437827333e-06 0.00130941706139
218 2 17.488499731 12.880930562 3.001331049 0.0 0.0 0.0 -0.000440997926938 1.20116025757e-06 9.80710451255e-05
219 2 6.333285745 6.440465248 3.001331049 0.0 0.0 0.0 3.359777733e-05 -0.000160506882751 -9.46907026798e-06
220 2 13.770095117 6.440465248 3.001331049 0.0 0.0 0.0 3.35983976212e-05 0.000162929372407 -9.46982175068e-06
221 2 10.051690403 12.880930555 9.938181189 0.0 0.0 0.0 -0.00157416912581 1.17793188336e-06 0.00131028047941
222 2 17.488499774 12.880930555 9.938181189 0.0 0.0 0.0 0.000540489757513 1.18097685518e-06 9.55728224426e-05
223 2 6.333285789 6.440465241 9.938181189 0.0 0.0 0.0 6.49566277886e-05 0.000163074710353 -1.14019539142e-05
224 2 13.77009516 6.440465241 9.938181189 0.0 0.0 0.0 6.49950628324e-05 -0.000160723073639 -1.14182772479e-05
225 1 13.26085702 5.67351034 3.319819519 0.0 0.0 0.0 5.25066255485e-05 -4.78343268829e-05 -1.9237776666e-05
226 1 5.824047648 5.67351034 3.319819519 0.0 0.0 0.0 8.68730626868e-05 0.000169009269742 -4.34602852884e-05
227 1 16.979261634 12.113975653 3.319819519 0.0 0.0 0.0 0.000398199237045 -9.1116313433e-05 -9.6267067404e-05
228 1 9.542452262 12.113975653 3.319819519 0.0 0.0 0.0 -0.000682592175105 -0.00030152898018 -0.000378109060747
229 1 13.260857063 5.673510332 10.256669659 0.0 0.0 0.0 7.00324270754e-05 9.53683852268e-06 -5.24254434857e-05
230 1 5.824047691 5.673510332 10.256669659 0.0 0.0 0.0 3.85134758038e-05 -0.000184720971513 -9.16951215775e-05
231 1 16.979261677 12.113975646 10.256669659 0.0 0.0 0.0 -0.000219753264909 4.70374779392e-05 -0.000163256759724
232 1 9.542452305 12.113975646 10.256669659 0.0 0.0 0.0 0.000556107972829 0.000200387408061 -0.000407626051757
233 1 2.105642892 0.766955018 3.319818703 0.0 0.0 0.0 -0.00068343561672 0.000301574925092 -0.000374129463583
234 1 9.542452263 0.766955018 3.319818703 0.0 0.0 0.0 0.000397367649825 9.11465147927e-05 -9.22938424755e-05
235 1 5.824047506 7.207420332 3.319818703 0.0 0.0 0.0 5.1678453438e-05 4.7853792391e-05 -1.52689456782e-05
236 1 13.260856878 7.207420332 3.319818703 0.0 0.0 0.0 8.60448669416e-05 -0.000168989794854 -3.94916816757e-05
237 1 2.105642935 0.766955011 10.256668843 0.0 0.0 0.0 0.000555263459721 -0.000200339248875 -0.000403645569222
238 1 9.542452307 0.766955011 10.256668843 0.0 0.0 0.0 -0.000220598294167 -4.69905220359e-05 -0.00015927701153
239 1 5.824047549 7.207420325 10.256668843 0.0 0.0 0.0 6.92024767748e-05 -9.50089142261e-06 -4.84525497079e-05
240 1 13.260856921 7.207420325 10.256668843 0.0 0.0 0.0 3.76506992854e-05 0.000184782392808 -8.77057142014e-05
241 2 13.566178647 2.264553318 3.001331607 0.0 0.0 0.0 0.000124560415023 -2.59399466237e-05 -1.32417255568e-05
242 2 6.129369276 2.264553318 3.001331607 0.0 0.0 0.0 -0.000832054702891 -0.00136082125265 0.00132117330039
243 2 17.284583261 8.705018632 3.001331607 0.0 0.0 0.0 -0.000154270200577 0.000135053233218 -1.32237157923e-05
244 2 9.84777389 8.705018632 3.001331607 0.0 0.0 0.0 0.000219183599212 0.000459962605924 9.14098049318e-05
245 2 13.56617869 2.26455331 9.938181747 0.0 0.0 0.0 -0.000170262601238 0.000107618597494 -1.51955918502e-05
246 2 6.129369319 2.26455331 9.938181747 0.0 0.0 0.0 0.000790595916795 0.00144958989284 0.00132144658788
247 2 17.284583305 8.705018624 9.938181747 0.0 0.0 0.0 0.000108865230539 -5.35763796517e-05 -1.52054460636e-05
248 2 9.847773933 8.705018624 9.938181747 0.0 0.0 0.0 -0.000265248414858 -0.000379184941546 8.89031767654e-05
249 1 14.485000752 2.20701716 3.319818255 0.0 0.0 0.0 -0.000182187690052 0.000132827575432 -3.85795617819e-05
250 1 7.048191381 2.20701716 3.319818255 0.0 0.0 0.0 0.000552294964656 0.000555607117627 -0.000324817302764
251 1 18.203405367 8.647482473 3.319818255 0.0 0.0 0.0 1.94816109434e-05 4.86583035769e-05 -1.6431131209e-05
252 1 10.766595995 8.647482473 3.319818255 0.0 0.0 0.0 -0.00013570019655 -0.000293597734889 -0.000106321221191
253 1 14.485000796 2.207017152 10.256668395 0.0 0.0 0.0 0.000133689243854 -3.89413252065e-06 -8.60241461082e-05
254 1 7.048191424 2.207017152 10.256668395 0.0 0.0 0.0 -0.000417610532677 -0.000257212390174 -0.000362469627655
255 1 18.20340541 8.647482466 10.256668395 0.0 0.0 0.0 -4.77003483114e-05 7.12110363248e-05 -4.98942788932e-05
256 1 10.766596038 8.647482466 10.256668395 0.0 0.0 0.0 8.15545057482e-05 0.000357017541757 -0.000174961214138
257 1 5.719786092 1.440061854 3.319818129 0.0 0.0 0.0 0.00054132404165 0.00118599982879 -0.00178630297775
258 1 13.156595464 1.440061854 3.319818129 0.0 0.0 0.0 -8.86222150842e-05 6.16916204065e-05 -1.71639282929e-05
259 1 9.438190706 7.880527168 3.319818129 0.0 0.0 0.0 -9.88190674994e-05 -4.47656884446e-05 -1.51835325049e-05
260 1 16.875000078 7.880527168 3.319818129 0.0 0.0 0.0 -4.76983115512e-07 4.17950964358e-06 -1.83137242493e-05
261 1 5.719786135 1.440061847 10.256668269 0.0 0.0 0.0 -0.000375649807851 -0.000613235359805 -0.00139580436282
262 1 13.156595507 1.440061847 10.256668269 0.0 0.0 0.0 -5.2058583952e-06 2.85610723548e-05 -5.45353296546e-05
263 1 9.438190749 7.880527161 10.256668269 0.0 0.0 0.0 1.04643310424e-06 0.000118245605309 -6.32596457425e-05
264 1 16.875000121 7.880527161 10.256668269 0.0 0.0 0.0 -8.37973276909e-05 8.0111148448e-05 -5.65402713372e-05
265 2 2.410964342 4.175911908 3.001332195 0.0 0.0 0.0 0.000220941477315 -0.000461267406973 9.0521837756e-05
266 2 9.847773713 4.175911908 3.001332195 0.0 0.0 0.0 -0.000152519172291 -0.00013634610744 -1.41050112888e-05
267 2 6.129368956 10.616377222 3.001332195 0.0 0.0 0.0 0.000126341289967 2.46608206504e-05 -1.41037100705e-05
268 2 13.566178327 10.616377222 3.001332195 0.0 0.0 0.0 -0.000830255325532 0.00135953544617 0.00132030767198
269 2 2.410964385 4.175911901 9.938182334 0.0 0.0 0.0 -0.00026345221817 0.00037792832171 8.80572419359e-05
270 2 9.847773757 4.175911901 9.938182334 0.0 0.0 0.0 0.000110609445511 5.23276685844e-05 -1.6058544021e-05
271 2 6.129368999 10.616377215 9.938182334 0.0 0.0 0.0 -0.000168512951815 -0.000108904502389 -1.60615548208e-05
272 2 13.566178371 10.616377215 9.938182334 0.0 0.0 0.0 0.000792353627709 -0.0014508743526 0.00132058397584
273 1 16.875000507 5.000403535 3.319819181 0.0 0.0 0.0 -9.89863550078e-05 4.30334595865e-05 -1.8292929964e-05