ITEM: TIMESTEP
0
ITEM: NUMBER OF ATOMS
288
ITEM: BOX BOUNDS xy xz yz xx yy zz
0.0 14.873618743 7.436809228
0.0 12.880930628 8.6e-08
0.0 13.87370028 -1.5e-08
ITEM: ATOMS id type x y z vx vy vz fx fy fz
1 2 2.338671397 1.12e-07 0.380392751 0.0 0.0 0.0 0.0209798202068 6.38528618535e-07 0.402514890455
2 2 9.775480768 1.12e-07 0.380392751 0.0 0.0 0.0 2.448969236e-05 4.98162507457e-07 0.000142222008385
3 2 6.057076011 6.440465426 0.380392751 0.0 0.0 0.0 2.81378605495e-05 -1.6158169131e-06 0.000142077599516
4 2 13.493885382 6.440465426 0.380392751 0.0 0.0 0.0 2.81517332597e-05 2.61065279362e-06 0.000142082804201
5 2 2.33867144 1.04e-07 7.317242891 0.0 0.0 0.0 2.18517601496e-05 5.01269051767e-07 -0.000657168995809
6 2 9.775480812 1.04e-07 7.317242891 0.0 0.0 0.0 3.0906076332e-05 5.03797371701e-07 -9.606559614e-05
7 2 6.057076054 6.440465418 7.317242891 0.0 0.0 0.0 2.89039577565e-05 1.65492809676e-06 -9.59806041753e-05
8 2 13.493885426 6.440465418 7.317242891 0.0 0.0 0.0 2.88591621078e-05 -6.52612282188e-07 -9.59676292421e-05
9 1 2.400632363 4.61e-07 1.361465958 0.0 0.0 0.0 -0.0212185243543 -2.00466553697e-06 -0.389871702307
10 1 9.837441735 4.61e-07 1.351465958 0.0 0.0 0.0 3.9763600656e-05 -1.85065291487e-06 -4.31589080238e-05
11 1 6.119036977 6.440465774 1.351465958 0.0 0.0 0.0 4.11701479695e-05 -2.65636656124e-06 -4.32102439221e-05
12 1 13.555846349 6.440465774 1.351465958 0.0 0.0 0.0 4.11646864626e-05 -1.03962013874e-06 -4.32125006465e-05
13 1 2.400632406 4.53e-07 8.288316098 0.0 0.0 0.0 3.87276768417e-05 -1.84974184306e-06 0.000307428880423
14 1 9.837441778 4.53e-07 8.288316098 0.0 0.0 0.0 4.21869079129e-05 -1.84975813629e-06 0.000103875603773
15 1 6.11903702 6.440465767 8.288316098 0.0 0.0 0.0 4.14233357016e-05 -1.40861832607e-06 0.000103908134961
16 1 13.555846392 6.440465767 8.288316098 0.0 0.0 0.0 4.14236282672e-05 -2.29149481734e-06 0.000103907761814
17 1 10.701141082 12.880930558 0.072968506 0.0 0.0 0.0 0.00112877408654 4.36862888026e-07 0.00214633728873
18 1 18.137950453 12.880930558 0.072968506 0.0 0.0 0.0 0.000104719676583 4.3474313258e-07 -1.71386988406e-06
19 1 6.982736468 6.440465244 0.072968506 0.0 0.0 0.0 6.58093198071e-05 2.07658568958e-05 5.5727164864e-06
20 1 14.419545839 6.440465244 0.072968506 0.0 0.0 0.0 6.58069508503e-05 -1.98961138416e-05 5.56992749303e-06
21 1 10.701141125 12.880930551 7.009818646 0.0 0.0 0.0 0.000136000747272 4.32068289977e-07 0.000421444156502
22 1 18.137950497 12.880930551 7.009818646 0.0 0.0 0.0 3.81274294327e-05 4.31835662928e-07 0.000110046299419
23 1 6.982736511 6.440465237 7.009818646 0.0 0.0 0.0 5.9553474695e-05 -1.13696887538e-05 0.000104078009526
24 1 14.419545882 6.440465237 7.009818646 0.0 0.0 0.0 5.959169294e-05 1.22327902012e-05 0.000104067469813
25 2 13.704282012 2.025348059 0.380394512 0.0 0.0 0.0 -0.000416463645794 0.00026505638045 0.000432027634481
26 2 6.26747264 2.025348059 0.380394512 0.0 0.0 0.0 0.000343369346342 0.000229966033158 0.000379148720566
27 2 17.422686626 8.465813373 0.380394512 0.0 0.0 0.0 -1.55205421815e-05 2.80958799944e-05 0.00010602588484
28 2 9.985877254 8.465813373 0.380394512 0.0 0.0 0.0 -6.19015575508e-06 -0.000407549920057 0.000403573054313
29 2 13.704282055 2.025348052 7.317244652 0.0 0.0 0.0 7.63466305047e-05 -2.52258937285e-05 -0.000242039213858
30 2 6.267472684 2.025348052 7.317244652 0.0 0.0 0.0 -0.000101928844832 -2.1299503022e-05 -0.000225445715132
31 2 17.422686669 8.465813365 7.317244652 0.0 0.0 0.0 -1.34838017032e-05 2.81830148305e-05 -8.17510226235e-05
32 2 9.985877298 8.465813365 7.317244652 0.0 0.0 0.0 -1.61852634442e-05 0.000130935228616 -0.000233189677288
33 1 13.673300338 2.079010187 1.351467718 0.0 0.0 0.0 -1.20619323495e-05 2.86579891778e-05 -0.000339859945897
34 1 6.236490966 2.079010187 1.351467718 0.0 0.0 0.0 -2.01120972934e-05 2.5793535189e-05 -0.000274936478837
35 1 17.391704952 8.519475501 1.351467718 0.0 0.0 0.0 -1.44729956111e-05 2.79549834392e-05 -3.01564102226e-05
36 1 9.95489558 8.519475501 1.351467718 0.0 0.0 0.0 -1.36192180645e-05 2.476932905e-05 -0.000274958836211
37 1 13.673300381 2.07901018 8.288317858 0.0 0.0 0.0 -1.47737005514e-05 2.79981245813e-05 0.000164367836461
38 1 6.236491009 2.07901018 8.288317858 0.0 0.0 0.0 -1.36888286631e-05 2.83330239887e-05 0.000153015291368
39 1 17.391704995 8.519475493 8.288317858 0.0 0.0 0.0 -1.428379757e-05 2.82978587397e-05 8.56279628673e-05
40 1 9.954895623 8.519475493 8.288317858 0.0 0.0 0.0 -1.45205834638e-05 2.83075660112e-05 0.000153014430963
41 1 13.241451457 2.826992613 0.072968839 0.0 0.0 0.0 6.19868686168e-05 -1.29546526234e-05 -9.29745860918e-06
42 1 5.804642085 2.826992613 0.072968839 0.0 0.0 0.0 -0.000201753241301 -9.87583239439e-05 -4.53407190431e-05
43 1 16.959856071 9.267457927 0.072968839 0.0 0.0 0.0 -3.71840406732e-05 6.83106297417e-05 1.45676518111e-05
44 1 9.523046699 9.267457927 0.072968839 0.0 0.0 0.0 2.47943506399e-05 0.000617960100709 -0.000104551432353
45 1 13.2414515 2.826992606 7.009818978 0.0 0.0 0.0 -7.60403584465e-05 9.35935636227e-05 0.000134100397018
46 1 5.804642128 2.826992606 7.009818978 0.0 0.0 0.0 2.39010634455e-05 0.000109453529327 0.000163721021217
47 1 16.959856114 9.26745792 7.009818978 0.0 0.0 0.0 -2.64957042178e-05 5.47734980994e-05 9.42933604478e-05
48 1 9.523046743 9.26745792 7.009818978 0.0 0.0 0.0 -4.10001746065e-05 -3.77313817053e-05 0.000224065942589
49 2 17.422687622 4.415117298 0.380394729 0.0 0.0 0.0 -6.44971592645e-06 0.000407247786533 0.000404536881283
50 2 9.985878251 4.415117298 0.380394729 0.0 0.0 0.0 -1.57815243564e-05 -2.83996446598e-05 0.000106990693765
51 2 21.141092236 10.855582612 0.380394729 0.0 0.0 0.0 -0.000416708013599 -0.000265344709507 0.000432996366229
52 2 13.704282865 10.855582612 0.380394729 0.0 0.0 0.0 0.000343105876458 -0.000230269579976 0.000380115671772
53 2 17.422687665 4.415117291 7.317244869 0.0 0.0 0.0 -1.64255008474e-05 -0.000131217925175 -0.000232221938171
54 2 9.985878294 4.415117291 7.317244869 0.0 0.0 0.0 -1.3744142318e-05 -2.84942328411e-05 -8.07838676233e-05
55 2 21.14109228 10.855582605 7.317244869 0.0 0.0 0.0 7.6064612905e-05 2.48818135893e-05 -0.000241082899711
56 2 13.704282908 10.855582605 7.317244869 0.0 0.0 0.0 -0.000102180330983 2.09779130869e-05 -0.000224489995226
57 1 2.518088606 4.36145465 1.351467896 0.0 0.0 0.0 -1.92221811019e-05 -2.28262773323e-05 -0.000273677054325
58 1 9.954897977 4.36145465 1.351467896 0.0 0.0 0.0 -2.00722306744e-05 -2.6010166396e-05 -2.88757399976e-05
59 1 6.23649322 10.801919964 1.351467896 0.0 0.0 0.0 -1.76640645589e-05 -2.67155811594e-05 -0.000338578785411
60 1 13.673302591 10.801919964 1.351467896 0.0 0.0 0.0 -2.57120409342e-05 -2.38492870155e-05 -0.00027365579075
61 1 2.518088649 4.361454643 8.288318036 0.0 0.0 0.0 -2.0124165197e-05 -2.63642268483e-05 0.00015430045539
62 1 9.95489802 4.361454643 8.288318036 0.0 0.0 0.0 -1.98802880243e-05 -2.63506263166e-05 8.6911366688e-05
63 1 6.236493263 10.801919957 8.288318036 0.0 0.0 0.0 -2.03695777014e-05 -2.60501158934e-05 0.000165651530774
64 1 13.673302635 10.801919957 8.288318036 0.0 0.0 0.0 -1.92915116734e-05 -2.6388912906e-05 0.000154300753305
65 1 16.959856167 3.613473172 0.07296928 0.0 0.0 0.0 2.70731600169e-05 -0.000618947754361 -0.000104518310097
66 1 9.523046796 3.613473172 0.07296928 0.0 0.0 0.0 -3.49043677367e-05 -6.92969950032e-05 1.45992507497e-05
67 1 20.678260782 10.053938486 0.07296928 0.0 0.0 0.0 6.42548789298e-05 1.19530994813e-05 -9.26869569989e-06
68 1 13.24145141 10.053938486 0.07296928 0.0 0.0 0.0 -0.000199473667657 9.77715428076e-05 -4.53087563031e-05
69 1 16.959856211 3.613473164 7.00981942 0.0 0.0 0.0 -3.87362705914e-05 3.67219284469e-05 0.000224086315066
70 1 9.523046839 3.613473164 7.00981942 0.0 0.0 0.0 -2.4219577863e-05 -5.57651935093e-05 9.43159836269e-05
71 1 20.678260825 10.053938478 7.00981942 0.0 0.0 0.0 -7.37496962844e-05 -9.45561851338e-05 0.000134132236332
72 1 13.241451453 10.053938478 7.00981942 0.0 0.0 0.0 2.61805785622e-05 -0.000110434170262 0.000163751129364
73 2 5.098138192 9.1e-08 3.848820961 0.0 0.0 0.0 -0.00169269408878 -9.66712717037e-07 -0.000533136784456
74 2 12.534947564 9.1e-08 3.848820961 0.0 0.0 0.0 0.000296241104901 -9.69807867346e-07 8.35647297315e-05
75 2 8.816542806 6.440465404 3.848820961 0.0 0.0 0.0 -2.17531183062e-05 8.86288754641e-05 7.17930386386e-05
76 2 16.253352178 6.440465404 3.848820961 0.0 0.0 0.0 -2.17593038422e-05 -9.05457680023e-05 7.18004086865e-05
77 2 5.098138235 8.3e-08 10.785671101 0.0 0.0 0.0 0.000254331073057 -9.65698093625e-07 -0.000512030776409
78 2 12.534947607 8.3e-08 10.785671101 0.0 0.0 0.0 -0.000196195386487 -9.65660845953e-07 -0.000166149440753
79 2 8.816542849 6.440465397 10.785671101 0.0 0.0 0.0 -3.55110204428e-05 -6.1930564525e-05 -7.72748902055e-05
80 2 16.253352221 6.440465397 10.785671101 0.0 0.0 0.0 -3.55175219907e-05 6.00002912221e-05 -7.72761264133e-05
81 1 12.472986142 12.880930033 4.819894401 0.0 0.0 0.0 0.000276389527384 1.94538591756e-06 0.000357800601311
82 1 19.909795513 12.880930033 4.819894401 0.0 0.0 0.0 -0.000187585713745 1.94564870278e-06 8.29594099269e-05
83 1 8.754581528 6.440464719 4.819894401 0.0 0.0 0.0 -4.56235010532e-05 -4.37100915813e-05 4.02580417402e-05
84 1 16.191390899 6.440464719 4.819894401 0.0 0.0 0.0 -4.56187866208e-05 4.75969411019e-05 4.02559543024e-05
85 1 12.472986185 12.880930026 11.756744541 0.0 0.0 0.0 -0.00035675143319 1.94458280474e-06 0.000356038010855
86 1 19.909795557 12.880930026 11.756744541 0.0 0.0 0.0 0.000103381217896 1.94436117489e-06 8.24648497303e-05
87 1 8.754581571 6.440464712 11.756744541 0.0 0.0 0.0 -3.801281709e-05 4.74974123956e-05 3.95041000164e-05
88 1 16.191390943 6.440464712 11.756744541 0.0 0.0 0.0 -3.8012929803e-05 -4.36092332482e-05 3.95043366396e-05
89 1 4.172478132 1.2e-08 3.541396305 0.0 0.0 0.0 0.00218215121838 -2.67408824409e-07 0.00125387319276
90 1 11.609287504 1.2e-08 3.541396305 0.0 0.0 0.0 -0.000122569270035 -2.66289136228e-07 -1.43336525744e-05
91 1 7.890882746 6.440465326 3.541396305 0.0 0.0 0.0 -7.17945830723e-05 -2.7093317086e-05 2.3969501226e-06
92 1 15.327692118 6.440465326 3.541396305 0.0 0.0 0.0 -7.17932504659e-05 2.65557501274e-05 2.39350506017e-06
93 1 4.172478175 5e-09 10.478246445 0.0 0.0 0.0 -0.000139617640352 -2.68033733582e-07 0.000371519792641
94 1 11.609287547 5e-09 10.478246445 0.0 0.0 0.0 -3.77610030457e-05 -2.68060304121e-07 0.000114312787766
95 1 7.890882789 6.440465319 10.478246445 0.0 0.0 0.0 -6.40469594613e-05 1.50367164441e-05 0.000104722154158
96 1 15.327692161 6.440465319 10.478246445 0.0 0.0 0.0 -6.40448375292e-05 -1.55735206854e-05 0.000104722633935
97 2 12.324550744 4.415115375 3.848820709 0.0 0.0 0.0 8.73926450575e-05 -8.01180033076e-05 7.57244782969e-05
98 2 4.887741372 4.415115375 3.848820709 0.0 0.0 0.0 -0.00013763085773 -0.000274296374746 9.07272855806e-05
99 2 16.042955358 10.855580689 3.848820709 0.0 0.0 0.0 -5.96111248718e-05 9.4930697262e-06 7.50524369873e-05
100 2 8.606145986 10.855580689 3.848820709 0.0 0.0 0.0 0.000866567470566 0.00156756818878 -0.000683757190061
101 2 12.324550787 4.415115367 10.785670849 0.0 0.0 0.0 -3.79684218661e-05 1.37365765954e-05 -7.52876491501e-05
102 2 4.887741415 4.415115367 10.785670849 0.0 0.0 0.0 9.07680038916e-05 0.00010423316428 -0.000149556554237
103 2 16.042955401 10.855580681 10.785670849 0.0 0.0 0.0 6.15547728425e-05 -4.72481161549e-05 -7.1418837443e-05
104 2 8.606146029 10.855580681 10.785670849 0.0 0.0 0.0 -0.000119644134212 -0.000286013109082 -0.000559445785851
105 1 12.355530592 4.361455296 4.81989398 0.0 0.0 0.0 -1.11305432126e-05 -9.02296660088e-06 4.49887377591e-05
106 1 4.91872122 4.361455296 4.81989398 0.0 0.0 0.0 8.31953442754e-05 7.12080211718e-05 7.52781575722e-05
107 1 16.073935206 10.801920609 4.81989398 0.0 0.0 0.0 6.22493917198e-05 -5.11516690625e-05 4.41156989922e-05
108 1 8.637125834 10.801920609 4.81989398 0.0 0.0 0.0 -0.000156722467329 -0.000329636080006 0.000449757048897
109 1 12.355530635 4.361455288 11.75674412 0.0 0.0 0.0 5.76014426867e-05 -5.89232602666e-05 4.33646990818e-05
110 1 4.918721263 4.361455288 11.75674412 0.0 0.0 0.0 -3.7599457082e-05 -0.000137908776754 7.47357805285e-05
111 1 16.073935249 10.801920602 11.75674412 0.0 0.0 0.0 -1.54167943672e-05 -1.65319899959e-05 4.42330001052e-05
112 1 8.637125877 10.801920602 11.75674412 0.0 0.0 0.0 0.000187444759524 0.00026652000464 0.0004472879886
113 1 12.787381758 3.613470486 3.541396271 0.0 0.0 0.0 -4.56246783976e-05 4.85687580603e-06 -1.18956783815e-05
114 1 5.350572387 3.613470486 3.541396271 0.0 0.0 0.0 0.00016395257739 9.53705127021e-05 -3.94425614017e-05
115 1 16.505786372 10.0539358 3.541396271 0.0 0.0 0.0 3.85229695915e-05 -6.40215317229e-05 1.10143254459e-05
116 1 9.068977001 10.0539358 3.541396271 0.0 0.0 0.0 -7.98237826464e-05 -0.000774513792297 -5.35117941454e-05
117 1 12.787381802 3.613470479 10.478246411 0.0 0.0 0.0 6.67953175743e-05 -8.33930355117e-05 0.000127598715693
118 1 5.35057243 3.613470479 10.478246411 0.0 0.0 0.0 -1.73701062524e-05 -0.000102743003315 0.000163220135458
119 1 16.505786416 10.053935793 10.478246411 0.0 0.0 0.0 2.39175321006e-05 -4.74760586794e-05 9.73777617824e-05
120 1 9.068977044 10.053935793 10.478246411 0.0 0.0 0.0 3.9663879379e-05 4.1105470895e-05 0.00024416721149
121 2 16.042954883 2.025349614 3.848821218 0.0 0.0 0.0 0.000867669281157 -0.00156702787508 -0.000683845908201
122 2 8.606145512 2.025349614 3.848821218 0.0 0.0 0.0 -5.84976538703e-05 -8.94038167661e-06 7.4956539876e-05
123 2 19.761359497 8.465814928 3.848821218 0.0 0.0 0.0 8.85106573452e-05 8.0680557861e-05 7.56356451452e-05
124 2 12.324550126 8.465814928 3.848821218 0.0 0.0 0.0 -0.000136529927212 0.000274837886784 9.06450842796e-05
125 2 16.042954927 2.025349607 10.785671358 0.0 0.0 0.0 -0.000118546085073 0.000286574549655 -0.000559527288074
126 2 8.606145555 2.025349607 10.785671358 0.0 0.0 0.0 6.26733763583e-05 4.78283020924e-05 -7.15025625331e-05
127 2 19.761359541 8.46581492 10.785671358 0.0 0.0 0.0 -3.6834047068e-05 -1.31178625362e-05 -7.53814124874e-05
128 2 12.324550169 8.46581492 10.785671358 0.0 0.0 0.0 9.19057948888e-05 -0.000103607066848 -0.000149643036729
129 1 16.07393341 2.079010738 4.819894452 0.0 0.0 0.0 -0.00015192154918 0.000326640818005 0.000449871063574
130 1 8.637124038 2.079010738 4.819894452 0.0 0.0 0.0 6.7052687514e-05 4.81577954616e-05 4.42320785911e-05
131 1 19.792338024 8.519476052 4.819894452 0.0 0.0 0.0 -6.33168920004e-06 6.02202764535e-06 4.51020532483e-05
132 1 12.355528653 8.519476052 4.819894452 0.0 0.0 0.0 8.79948058918e-05 -7.42085670256e-05 7.53911067427e-05
133 1 16.073933453 2.079010731 11.756744592 0.0 0.0 0.0 0.000192247071403 -0.000269518758952 0.000447399195978
134 1 8.637124082 2.079010731 11.756744592 0.0 0.0 0.0 -1.06180029804e-05 1.35312091233e-05 4.43430858434e-05
135 1 19.792338067 8.519476045 11.756744592 0.0 0.0 0.0 6.24010057444e-05 5.59187136773e-05 4.34754637577e-05
136 1 12.355528696 8.519476045 11.756744592 0.0 0.0 0.0 -3.28026237809e-05 0.000134902286794 7.4844348189e-05
137 1 1.632167798 2.826994038 3.541396624 0.0 0.0 0.0 -8.16944750681e-05 0.000776644469203 -5.340385682e-05
138 1 9.06897717 2.826994038 3.541396624 0.0 0.0 0.0 3.66426396896e-05 6.61368989821e-05 1.11282266655e-05
139 1 5.350572412 9.267459352 3.541396624 0.0 0.0 0.0 -4.75050817412e-05 -2.74318007554e-06 -1.17872665999e-05
140 1 12.787381784 9.267459352 3.541396624 0.0 0.0 0.0 0.000162082115897 -9.32402918584e-05 -3.93396583393e-05
141 1 1.632167841 2.826994031 10.478246764 0.0 0.0 0.0 3.77906165668e-05 -3.89888956893e-05 0.000244275505769
142 1 9.068977213 2.826994031 10.478246764 0.0 0.0 0.0 2.20330564496e-05 4.95766096244e-05 9.74893846931e-05
143 1 5.350572456 9.267459345 10.478246764 0.0 0.0 0.0 6.4895580323e-05 8.54640866701e-05 0.000127718526837
144 1 12.787381827 9.267459345 10.478246764 0.0 0.0 0.0 -1.92711727475e-05 0.000104812739939 0.000163337795483
145 2 12.258736453 12.880930313 6.469757221 0.0 0.0 0.0 -0.00032522592415 -7.04610842591e-07 -0.000549805711611
146 2 19.695545825 12.880930313 6.469757221 0.0 0.0 0.0 0.000101221092268 -7.24720759692e-07 -0.000223561236737
147 2 8.540331839 6.440464999 6.469757221 0.0 0.0 0.0 -4.01354265543e-05 5.4295115166e-05 -0.000138751804154
148 2 15.97714121 6.440464999 6.469757221 0.0 0.0 0.0 -4.00971391837e-05 -5.57095981239e-05 -0.000138737297944
149 2 12.258736496 12.880930306 13.40660736 0.0 0.0 0.0 0.00206274954975 -7.05951328015e-07 -0.000673903432975
150 2 19.695545868 12.880930306 13.40660736 0.0 0.0 0.0 -0.000382027061695 -7.02040822319e-07 8.06106948619e-05
151 2 8.540331882 6.440464992 13.40660736 0.0 0.0 0.0 -5.35230116812e-05 -8.83443777921e-05 3.39580616028e-05
152 2 15.977141254 6.440464992 13.40660736 0.0 0.0 0.0 -5.35284989029e-05 8.6884337542e-05 3.39581769089e-05
153 1 5.331166141 0.766954845 6.788243965 0.0 0.0 0.0 3.59169328683e-05 5.66205500068e-05 0.000156258361384
154 1 12.767975512 0.766954845 6.788243965 0.0 0.0 0.0 -0.000132689168883 3.4621497802e-05 8.62247316556e-05
155 1 9.049570755 7.207420159 6.788243965 0.0 0.0 0.0 -6.6999214279e-05 -3.06419560636e-05 4.69055162186e-05
156 1 16.486380127 7.207420159 6.788243965 0.0 0.0 0.0 -5.85237211409e-05 2.55910617971e-05 1.62524136199e-05
157 1 5.331166184 0.766954838 13.725094105 0.0 0.0 0.0 -0.000716031036535 -0.000258364400837 -0.000172995857282
158 1 12.767975556 0.766954838 13.725094105 0.0 0.0 0.0 0.000160356017754 -3.23674984015e-05 -0.000132418528166
159 1 9.049570798 7.207420151 13.725094105 0.0 0.0 0.0 -4.89859193724e-05 0.000114849975127 -9.48821798557e-05
160 1 16.48638017 7.207420151 13.725094105 0.0 0.0 0.0 -6.49846432759e-05 4.6690385913e-06 -6.63887742354e-05
161 1 16.486380702 5.673510068 6.788243516 0.0 0.0 0.0 -6.7129691931e-05 3.0521390152e-05 4.94580654081e-05
162 1 9.04957133 5.673510068 6.788243516 0.0 0.0 0.0 -5.86208619206e-05 -2.57367324552e-05 1.88219175685e-05
163 1 20.204785316 12.113975382 6.788243516 0.0 0.0 0.0 -0.000132814215457 -3.47380869969e-05 8.87796961812e-05
164 1 12.767975944 12.113975382 6.788243516 0.0 0.0 0.0 3.58042952951e-05 -5.6754351558e-05 0.000158820438852
165 1 16.486380745 5.673510061 13.725093655 0.0 0.0 0.0 -4.91095175323e-05 -0.00011496615934 -9.23250007941e-05
166 1 9.049571373 5.673510061 13.725093655 0.0 0.0 0.0 -6.51076264789e-05 -4.78424650983e-06 -6.38322383215e-05
167 1 20.204785359 12.113975375 13.725093655 0.0 0.0 0.0 0.000160248326975 3.22256011459e-05 -0.000129851444628
168 1 12.767975987 12.113975375 13.725093655 0.0 0.0 0.0 -0.000716137575662 0.000258223574305 -0.000170429318447
169 2 12.462655523 4.175912014 6.46975888 0.0 0.0 0.0 6.30588028685e-05 -7.42165684793e-05 -0.000146790445399
170 2 5.025846151 4.175912014 6.46975888 0.0 0.0 0.0 -5.25648643171e-05 -0.000158040291583 -0.000217275874272
171 2 16.181060137 10.616377328 6.46975888 0.0 0.0 0.0 -2.79428350904e-05 -1.9345694273e-05 -0.000142394144617
172 2 8.744250765 10.616377328 6.46975888 0.0 0.0 0.0 0.000151092032403 0.000207037884141 -0.000587583836536
173 2 12.462655566 4.175912007 13.406609019 0.0 0.0 0.0 -5.50366798243e-05 1.372556668e-05 2.96280402138e-05
174 2 5.025846194 4.175912007 13.406609019 0.0 0.0 0.0 0.00017135819005 0.000215923303818 6.40732478975e-05
175 2 16.18106018 10.616377321 13.406609019 0.0 0.0 0.0 8.94990090967e-05 -7.37705022823e-05 2.52749786393e-05
176 2 8.744250808 10.616377321 13.406609019 0.0 0.0 0.0 -0.00114122776887 -0.00222513262068 -0.000832549414182
177 1 4.107023344 4.233448053 6.788243333 0.0 0.0 0.0 3.82302586689e-05 9.78053650869e-06 9.11719294054e-05
178 1 11.543832716 4.233448053 6.788243333 0.0 0.0 0.0 3.62867328447e-06 -5.79046027647e-05 2.17268112708e-05
179 1 7.825427958 10.673913367 6.788243333 0.0 0.0 0.0 -6.58372246116e-05 -0.00013000469239 0.000163015680874
180 1 15.26223733 10.673913367 6.788243333 0.0 0.0 0.0 5.51774676884e-05 -7.89328433626e-05 4.66108991308e-05
181 1 4.107023387 4.233448046 13.725093473 0.0 0.0 0.0 -6.39439037444e-05 -0.000278750125911 -0.000123583456391
182 1 11.543832759 4.233448046 13.725093473 0.0 0.0 0.0 3.0195849774e-05 -6.67603536386e-05 -6.36895645339e-05
183 1 7.825428001 10.67391336 13.725093473 0.0 0.0 0.0 0.000584288991249 0.000395246958879 -0.000223948210043
184 1 15.262237373 10.67391336 13.725093473 0.0 0.0 0.0 -6.65660310454e-05 -2.70221209161e-05 -8.56440015554e-05
185 1 12.872237203 5.00040447 6.78824545 0.0 0.0 0.0 3.5294920662e-05 -3.91216748051e-05 2.18291342947e-05
186 1 5.435427832 5.00040447 6.78824545 0.0 0.0 0.0 6.05480979252e-05 -2.96035434762e-05 2.55818437725e-05
187 1 16.590641818 11.440869783 6.78824545 0.0 0.0 0.0 5.70678044048e-05 -5.52484140521e-05 1.88471781957e-05
188 1 9.153832446 11.440869783 6.78824545 0.0 0.0 0.0 1.1879416942e-05 -0.000132929682285 0.000329160421762
189 1 12.872237247 5.000404462 13.72509559 0.0 0.0 0.0 6.7619067503e-05 -7.12762548193e-05 -8.1170500098e-05
190 1 5.435427875 5.000404462 13.72509559 0.0 0.0 0.0 2.4824083579e-05 -8.57523611454e-05 -8.96185877569e-05
191 1 16.590641861 11.440869776 13.72509559 0.0 0.0 0.0 3.01553036798e-05 -4.34651844217e-05 -7.78449362239e-05
192 1 9.153832489 11.440869776 13.72509559 0.0 0.0 0.0 0.00145011848275 0.00318054364662 0.00307256995079
193 2 1.307441393 2.264553585 6.469759523 0.0 0.0 0.0 0.000148845756346 -0.00020567087074 -0.000587648174283
194 2 8.744250764 2.264553585 6.469759523 0.0 0.0 0.0 -3.01279731137e-05 2.07072861901e-05 -0.000142468799491
195 2 5.025846007 8.705018899 6.469759523 0.0 0.0 0.0 6.08200232505e-05 7.5616734008e-05 -0.000146861935148
196 2 12.462655379 8.705018899 6.469759523 0.0 0.0 0.0 -5.48162855446e-05 0.00015944632379 -0.000217353050049
197 2 1.307441436 2.264553578 13.406609663 0.0 0.0 0.0 -0.00114346824802 0.00222651553935 -0.000832633117331
198 2 8.744250808 2.264553578 13.406609663 0.0 0.0 0.0 8.72547879538e-05 7.51508958155e-05 2.51933739266e-05
199 2 5.02584605 8.705018892 13.406609663 0.0 0.0 0.0 -5.72617437136e-05 -1.23794596577e-05 2.95555611021e-05
200 2 12.462655422 8.705018892 13.406609663 0.0 0.0 0.0 0.000169127240113 -0.000214570756119 6.40011627226e-05
201 1 1.717022388 1.440060952 6.788246651 0.0 0.0 0.0 1.23818309869e-05 0.000134737818159 0.000325833997594
202 1 9.15383176 1.440060952 6.788246651 0.0 0.0 0.0 5.75593873219e-05 5.70704984675e-05 1.55161198208e-05
203 1 5.435427002 7.880526266 6.788246651 0.0 0.0 0.0 3.57981139744e-05 4.09120644217e-05 1.85093600672e-05
204 1 12.872236374 7.880526266 6.788246651 0.0 0.0 0.0 6.10624902321e-05 3.13818939359e-05 2.22664542367e-05
205 1 1.717022431 1.440060945 13.725096791 0.0 0.0 0.0 0.00145063505186 -0.0031787559434 0.00306925215314
206 1 9.153831803 1.440060945 13.725096791 0.0 0.0 0.0 3.06644302632e-05 4.5262057017e-05 -8.11655387325e-05
207 1 5.435427045 7.880526258 13.725096791 0.0 0.0 0.0 6.81161701276e-05 7.31036280948e-05 -8.45021278148e-05
208 1 12.872236417 7.880526258 13.725096791 0.0 0.0 0.0 2.53197412941e-05 8.75780316264e-05 -9.29490263547e-05
209 1 15.262237079 2.207018097 6.788243067 0.0 0.0 0.0 -6.78798255396e-05 0.000128162788656 0.000166714906196
210 1 7.825427708 2.207018097 6.788243067 0.0 0.0 0.0 5.30965311216e-05 7.70857324254e-05 5.03253506251e-05
211 1 18.980641693 8.647483411 6.788243067 0.0 0.0 0.0 1.5856652682e-06 5.6057090328e-05 2.54287221361e-05
212 1 11.543832322 8.647483411 6.788243067 0.0 0.0 0.0 3.61864612667e-05 -1.1625351894e-05 9.48733778666e-05
213 1 15.262237122 2.207018089 13.725093207 0.0 0.0 0.0 0.00058223479056 -0.000397088603666 -0.000220242260954
214 1 7.825427751 2.207018089 13.725093207 0.0 0.0 0.0 -6.86180505447e-05 2.51797766261e-05 -8.19393426979e-05
215 1 18.980641736 8.647483403 13.725093207 0.0 0.0 0.0 2.81422660118e-05 6.49192506533e-05 -5.99840773982e-05
216 1 11.543832365 8.647483403 13.725093207 0.0 0.0 0.0 -6.59960124269e-05 0.000276908323026 -0.000119878677231
217 2 10.05169036 12.880930562 3.001331049 0.0 0.0 0.0 -0.00151070451512 1.19503663703e-06 -0.0227501814927
218 2 17.488499731 12.880930562 3.001331049 0.0 0.0 0.0 5.61508663342e-05 1.20119308764e-06 7.2878711529e-05
219 2 6.333285745 6.440465248 3.001331049 0.0 0.0 0.0 5.01014605207e-05 4.71799569066e-06 7.27861311508e-05
220 2 13.770095117 6.440465248 3.001331049 0.0 0.0 0.0 5.01021500534e-05 -2.29562574468e-06 7.27853660017e-05
221 2 10.051690403 12.880930555 9.938181189 0.0 0.0 0.0 6.61422111568e-05 1.17770564532e-06 -0.000708163247852
222 2 17.488499774 12.880930555 9.938181189 0.0 0.0 0.0 4.50335576322e-05 1.18094728202e-06 -0.000151607098706
223 2 6.333285789 6.440465241 9.938181189 0.0 0.0 0.0 4.8825644761e-05 -1.03464663537e-06 -0.000151515425827
224 2 13.77009516 6.440465241 9.938181189 0.0 0.0 0.0 4.88640285334e-05 3.38637577672e-06 -0.000151531758303
225 1 13.26085702 5.67351034 3.319819519 0.0 0.0 0.0 4.3780861856e-05 1.19635351188e-06 -7.96246597972e-05
226 1 5.824047648 5.67351034 3.319819519 0.0 0.0 0.0 8.29919566111e-05 1.72447818691e-05 -8.37951482017e-05
227 1 16.979261634 12.113975653 3.319819519 0.0 0.0 0.0 7.47687894185e-05 -2.3825426038e-05 -7.78047522082e-05
228 1 9.542452262 12.113975653 3.319819519 0.0 0.0 0.0 -0.00184186753578 -0.00427585457394 0.00202443552584
229 1 13.260857063 5.673510332 10.256669659 0.0 0.0 0.0 7.17250264415e-05 -2.77109727148e-05 2.26344181196e-05
230 1 5.824047691 5.673510332 10.256669659 0.0 0.0 0.0 4.94248473789e-05 -3.60156015585e-05 2.64026580149e-05
231 1 16.979261677 12.113975646 10.256669659 0.0 0.0 0.0 5.39669908515e-05 -1.30006581289e-05 2.05811145874e-05
232 1 9.542452305 12.113975646 10.256669659 0.0 0.0 0.0 7.59177117434e-05 3.44813399771e-05 0.000317319612206
233 1 2.105642892 0.766955018 3.319818703 0.0 0.0 0.0 -0.00184271571789 0.00427590847719 0.00202842683193
234 1 9.542452263 0.766955018 3.319818703 0.0 0.0 0.0 7.39372832596e-05 2.38555811389e-05 -7.38314242028e-05
235 1 5.824047506 7.207420332 3.319818703 0.0 0.0 0.0 4.29527274953e-05 -1.17682028303e-06 -7.56557962715e-05
236 1 13.260856878 7.207420332 3.319818703 0.0 0.0 0.0 8.21637183511e-05 -1.72252200542e-05 -7.98264575476e-05
237 1 2.105642935 0.766955011 10.256668843 0.0 0.0 0.0 7.50728734314e-05 -3.44329046981e-05 0.000321299908413
238 1 9.542452307 0.766955011 10.256668843 0.0 0.0 0.0 5.31220777276e-05 1.30476830998e-05 2.45607803706e-05
239 1 5.824047549 7.207420325 10.256668843 0.0 0.0 0.0 7.08950485664e-05 2.77468807464e-05 2.6607261763e-05
240 1 13.260856921 7.207420325 10.256668843 0.0 0.0 0.0 4.85621109527e-05 3.60768948691e-05 3.03920148903e-05
241 2 13.566178647 2.264553318 3.001331607 0.0 0.0 0.0 0.000414784884147 -0.000218661568558 0.000260464941732
242 2 6.129369276 2.264553318 3.001331607 0.0 0.0 0.0 -0.000403342092193 -0.000172099824731 0.000246208057816
243 2 17.284583261 8.705018632 3.001331607 0.0 0.0 0.0 -2.06071746231e-05 4.07794542641e-05 4.42422766332e-05
244 2 9.84777389 8.705018632 3.001331607 0.0 0.0 0.0 -3.45723010007e-05 0.0005088141868 0.000252449417705
245 2 13.56617869 2.26455331 9.938181747 0.0 0.0 0.0 -0.000127399386108 0.000103410663107 -0.000301970828579
246 2 6.129369319 2.26455331 9.938181747 0.0 0.0 0.0 7.46912943312e-05 9.48393183844e-05 -0.000282437426816
247 2 17.284583305 8.705018624 9.938181747 0.0 0.0 0.0 -2.4330559488e-05 4.08025392054e-05 -0.000133790742583
248 2 9.847773933 8.705018624 9.938181747 0.0 0.0 0.0 -1.89703569923e-05 -7.55988060122e-05 -0.000291314646802
249 1 14.485000752 2.20701716 3.319818255 0.0 0.0 0.0 -0.000437699351857 0.000414105013973 -0.000142261125634
250 1 7.048191381 2.20701716 3.319818255 0.0 0.0 0.0 6.37995494808e-05 9.26910780513e-05 -8.87854424937e-05
251 1 18.203405367 8.647482473 3.319818255 0.0 0.0 0.0 -2.99779952673e-05 5.5848748905e-05 -6.75336924248e-05
252 1 10.766595995 8.647482473 3.319818255 0.0 0.0 0.0 5.37587880581e-05 -0.000169785663731 -0.000126845413843
253 1 14.485000796 2.207017152 10.256668395 0.0 0.0 0.0 5.62222831303e-05 -1.44607203026e-06 0.000156093120538
254 1 7.048191424 2.207017152 10.256668395 0.0 0.0 0.0 -5.83281209481e-05 4.20533667e-05 4.63832081927e-05
255 1 18.20340541 8.647482466 10.256668395 0.0 0.0 0.0 -6.29180665823e-06 6.41297557322e-05 1.64940587011e-05
256 1 10.766596038 8.647482466 10.256668395 0.0 0.0 0.0 -3.61153785595e-05 0.000130539757241 9.23145310325e-05
257 1 5.719786092 1.440061854 3.319818129 0.0 0.0 0.0 0.00043274271957 0.000240616522365 -0.00015143009788
258 1 13.156595464 1.440061854 3.319818129 0.0 0.0 0.0 -0.000268772410073 0.000103457450336 -0.000119472580596
259 1 9.438190706 7.880527168 3.319818129 0.0 0.0 0.0 -6.02966078479e-05 -5.61539213312e-05 -9.03638381442e-05
260 1 16.875000078 7.880527168 3.319818129 0.0 0.0 0.0 -4.10426992016e-05 5.61680897943e-05 -6.43908032051e-05
261 1 5.719786135 1.440061847 10.256668269 0.0 0.0 0.0 -0.000128803522794 1.0782532464e-05 0.000149801522492
262 1 13.156595507 1.440061847 10.256668269 0.0 0.0 0.0 2.63227739088e-05 2.37551201614e-05 9.34694233299e-05
263 1 9.438190749 7.880527161 10.256668269 0.0 0.0 0.0 -3.89283315875e-05 9.57473233497e-05 5.4731263017e-05
264 1 16.875000121 7.880527161 10.256668269 0.0 0.0 0.0 -4.67768429426e-05 3.64188726828e-05 1.81488337635e-05
265 2 2.410964342 4.175911908 3.001332195 0.0 0.0 0.0 -3.28143770554e-05 -0.000510119620315 0.000251561577975
266 2 9.847773713 4.175911908 3.001332195 0.0 0.0 0.0 -1.88561598507e-05 -4.20723587583e-05 4.33610303266e-05
267 2 6.129368956 10.616377222 3.001332195 0.0 0.0 0.0 0.000416565470166 0.000217382425448 0.000259602781516
268 2 13.566178327 10.616377222 3.001332195 0.0 0.0 0.0 -0.000401542040454 0.000170813398298 0.000245341676091
269 2 2.410964385 4.175911901 9.938182334 0.0 0.0 0.0 -1.71742658264e-05 7.43424772235e-05 -0.000292160750805
270 2 9.847773757 4.175911901 9.938182334 0.0 0.0 0.0 -2.25863119893e-05 -4.20512121927e-05 -0.000134643891958
271 2 6.129368999 10.616377215 9.938182334 0.0 0.0 0.0 -0.000125649738312 -0.000104696620088 -0.000302836783924
272 2 13.566178371 10.616377215 9.938182334 0.0 0.0 0.0 7.64491279794e-05 -9.61242256537e-05 -0.000283300322971
273 1 16.875000507 5.000403535 3.319819181 0.0 0.0 0.0 -6.04639715671e-05 5.44217835685e-05 -9.34732554382e-05