ITEM: TIMESTEP
0
ITEM: NUMBER OF ATOMS
48
ITEM: BOX BOUNDS pp pp pp
0.0000000000000000e+00 9.3302764257999993e+00
0.0000000000000000e+00 4.6651382127999996e+00
0.0000000000000000e+00 7.0666780601000001e+00
ITEM: ATOMS id type x y z vx vy vz fx fy fz 
1 2 9.3295359172 1.1659142988 0.873228294 0.0 0.0 0.0 0.00329639877668 0.0194845929712 0.0231036004087
2 2 4.6651382129 1.1662845531 0.8737891494 0.0 0.0 0.0 -0.000389196973977 1.00528844372e-05 -0.00281916357418
3 1 0.0 1.9362356142 1.4835944328 0.0 0.0 0.0 -0.00102836532948 -0.0150549235871 -0.018075802316
4 1 4.6651382129 1.9362356142 1.4835944328 0.0 0.0 0.0 0.000184653581733 0.00154799088716 0.000915591410348
5 1 0.0 0.3963334921 1.4835944328 0.0 0.0 0.0 -0.00101172117447 -0.0027499291594 -0.00435651729949
6 1 4.6651382129 0.3963334921 1.4835944328 0.0 0.0 0.0 0.000184663534114 -0.00155115548089 0.000914442869419
7 2 0.0 3.4988536594 6.1928889639 0.0 0.0 0.0 0.000595783336246 -0.00080346075857 0.00215231960577
8 2 4.6651382129 3.4988536594 6.1928889639 0.0 0.0 0.0 -0.000256317765851 -5.72330698845e-06 0.00285764257114
9 1 0.0 2.7289027378 5.5830834171 0.0 0.0 0.0 -0.000195153946153 -0.0016461087548 -0.000766110255627
10 1 4.6651382129 2.7289027378 5.5830834171 0.0 0.0 0.0 0.000116782686554 -0.00154990579616 -0.00091775345031
11 1 0.0 4.2688045821 5.5830834171 0.0 0.0 0.0 -0.000195187151372 0.00166664062538 -0.000624425823306
12 1 4.6651382129 4.2688045821 5.5830834171 0.0 0.0 0.0 0.000116785984851 0.00155109841795 -0.000915939958852
13 2 2.3325691063 3.4988536594 4.4071281272 0.0 0.0 0.0 -3.71390467939e-05 -1.84550372703e-05 -0.00303413169551
14 2 6.9977073192 3.4988536594 4.4071281272 0.0 0.0 0.0 -3.70963078316e-05 -1.84706451331e-05 -0.00303423416317
15 1 2.3325691063 2.7289027378 5.0169336729 0.0 0.0 0.0 9.97175766029e-07 -0.00153708511833 0.000973022923843
16 1 6.9977073192 2.7289027378 5.0169336729 0.0 0.0 0.0 5.1982398193e-05 -0.00156860035694 0.00106123030217
17 1 2.3325691063 4.2688045821 5.0169336729 0.0 0.0 0.0 -1.47576707058e-05 0.00154559107651 0.00098349152537
18 1 6.9977073192 4.2688045821 5.0169336729 0.0 0.0 0.0 6.77473149005e-05 0.00157711466302 0.00107171208071
19 2 2.3325691063 1.1662845531 2.6595499332 0.0 0.0 0.0 -0.00163863964143 0.000120428818844 0.00176823941468
20 2 6.9977073192 1.1662845531 2.6595499332 0.0 0.0 0.0 -0.00030239661606 0.000120747773424 0.00353356214527
21 1 2.3325691063 1.9362356142 2.049744598 0.0 0.0 0.0 0.000518892261182 0.00173671844058 -0.000816371090638
22 1 6.9977073192 1.9362356142 2.049744598 0.0 0.0 0.0 8.98280662239e-05 0.00142168458729 -0.00117497215783
23 1 2.3325691063 0.3963334921 2.049744598 0.0 0.0 0.0 0.00036151466115 -0.00177744339578 -0.000884503724469
24 1 6.9977073192 0.3963334921 2.049744598 0.0 0.0 0.0 0.000247459759063 -0.00146246070609 -0.00124324701767
25 2 0.0 3.4988536594 2.6404586118 0.0 0.0 0.0 0.000679387036603 -0.000862028296821 -0.00349772078719
26 2 4.6651382129 3.4988536594 2.6404586118 0.0 0.0 0.0 -0.000270684815749 -6.59857296072e-06 -0.00288218283013
27 1 3.895187291 3.4988536594 3.2502639482 0.0 0.0 0.0 -0.00141688469568 4.35507260718e-06 0.0009909137578
28 1 8.5603255039 3.4988536594 3.2502639482 0.0 0.0 0.0 -0.00175102400103 4.35609471585e-05 0.000975091017597
29 1 0.7699510611 3.4988536594 3.2502639482 0.0 0.0 0.0 0.00150596073264 4.35122638529e-05 0.00118108356999
30 1 5.435089274 3.4988536594 3.2502639482 0.0 0.0 0.0 0.00163830143735 4.36061120967e-06 0.000930635394492
31 2 0.0 1.1662845531 4.4262194485 0.0 0.0 0.0 0.000358501067352 6.18776685681e-05 0.00223318207089
32 2 4.6651382129 1.1662845531 4.4262194485 0.0 0.0 0.0 -0.000220558743532 3.72254940864e-06 0.00281573369431
33 1 0.7699510611 1.1662845531 3.8164139017 0.0 0.0 0.0 0.00149046409632 -4.53086679225e-05 -0.000511386812935
34 1 5.435089274 1.1662845531 3.8164139017 0.0 0.0 0.0 0.00164114470511 -3.50006315263e-06 -0.00092957974714
35 1 3.895187291 1.1662845531 3.8164139017 0.0 0.0 0.0 -0.00141669485348 -3.49635025255e-06 -0.000884972935095
36 1 8.5603255039 1.1662845531 3.8164139017 0.0 0.0 0.0 -0.00179914551105 -4.53336995694e-05 -0.00077251741485
37 2 2.3325691063 1.1662845531 6.1737976415 0.0 0.0 0.0 -0.000228735219968 0.000100510801524 -0.0023294289842
38 2 6.9977073192 1.1662845531 6.1737976415 0.0 0.0 0.0 -0.00152030884278 0.000100802461312 -0.00403366680736
39 1 3.1025200289 1.1662845531 6.7836031883 0.0 0.0 0.0 0.00173133276178 -1.16353869744e-05 0.000843191849589
40 1 7.7676582418 1.1662845531 6.7836031883 0.0 0.0 0.0 0.00250036331774 -0.000199321472603 0.0018377465918
41 1 1.5626180452 1.1662845531 6.7836031883 0.0 0.0 0.0 -0.00175653875827 -0.000199015092147 0.000300722418423
42 1 6.2277562581 1.1662845531 6.7836031883 0.0 0.0 0.0 -0.00128141365984 -1.16543248432e-05 0.000949215009901
43 2 2.3325691063 3.4988536594 0.8928804178 0.0 0.0 0.0 -0.00036239925156 -0.000204679708676 0.00316442856719
44 2 6.9977073192 3.4988536594 0.8928804178 0.0 0.0 0.0 -0.000464205670201 -0.000205274125635 0.0030305946062
45 1 1.5626180452 3.4988536594 0.2830750826 0.0 0.0 0.0 -0.00172000196316 0.000193853082757 -0.00121832340648
46 1 6.2277562581 3.4988536594 0.2830750826 0.0 0.0 0.0 -0.00134865477786 4.13546699254e-06 -0.000920902534773
47 1 3.1025200289 3.4988536594 0.2830750826 0.0 0.0 0.0 0.00168770178995 4.12946083676e-06 -0.00100810454097
48 1 7.7676582418 3.4988536594 0.2830750826 0.0 0.0 0.0 0.0015965759068 0.000194086332953 -0.000935434477449
