# written by phonopy, based on ase.io.lammpsrun.write_lammps_data() - j.meyer@chem.leidenuniv.nl 

288 	 atoms 
2  atom types
0.0 14.873618743  xlo xhi
0.0 12.880930628  ylo yhi
0.0 13.873700280  zlo zhi
7.436809228 8.6E-8 -1.5E-8  xy xz yz


Atoms 

     1   2 2.338671397 1.12E-7 0.380392751
     2   2 9.775480768 1.12E-7 0.380392751
     3   2 6.057076011 6.440465426 0.380392751
     4   2 13.493885382 6.440465426 0.380392751
     5   2 2.338671440 1.04E-7 7.317242891
     6   2 9.775480812 1.04E-7 7.317242891
     7   2 6.057076054 6.440465418 7.317242891
     8   2 13.493885426 6.440465418 7.317242891
     9   1 2.400632363 4.61E-7 1.351465958
    10   1 9.837441735 4.61E-7 1.351465958
    11   1 6.119036977 6.440465774 1.351465958
    12   1 13.555846349 6.440465774 1.351465958
    13   1 2.400632406 4.53E-7 8.288316098
    14   1 9.837441778 4.53E-7 8.288316098
    15   1 6.119037020 6.440465767 8.288316098
    16   1 13.555846392 6.440465767 8.288316098
    17   1 10.701141082 12.880930558 0.072968506
    18   1 18.137950453 12.880930558 0.072968506
    19   1 6.982736468 6.440465244 0.072968506
    20   1 14.419545839 6.440465244 0.072968506
    21   1 10.701141125 12.880930551 7.009818646
    22   1 18.137950497 12.880930551 7.009818646
    23   1 6.982736511 6.440465237 7.009818646
    24   1 14.419545882 6.440465237 7.009818646
    25   2 13.704282012 2.025348059 0.380394512
    26   2 6.267472640 2.025348059 0.380394512
    27   2 17.422686626 8.465813373 0.380394512
    28   2 9.985877254 8.465813373 0.380394512
    29   2 13.704282055 2.025348052 7.317244652
    30   2 6.267472684 2.025348052 7.317244652
    31   2 17.422686669 8.465813365 7.317244652
    32   2 9.985877298 8.465813365 7.317244652
    33   1 13.673300338 2.079010187 1.351467718
    34   1 6.236490966 2.079010187 1.351467718
    35   1 17.391704952 8.519475501 1.351467718
    36   1 9.954895580 8.519475501 1.351467718
    37   1 13.673300381 2.079010180 8.288317858
    38   1 6.236491009 2.079010180 8.288317858
    39   1 17.391704995 8.519475493 8.288317858
    40   1 9.954895623 8.519475493 8.288317858
    41   1 13.241451457 2.826992613 0.072968839
    42   1 5.804642085 2.826992613 0.072968839
    43   1 16.959856071 9.267457927 0.072968839
    44   1 9.523046699 9.267457927 0.072968839
    45   1 13.241451500 2.826992606 7.009818978
    46   1 5.804642128 2.826992606 7.009818978
    47   1 16.959856114 9.267457920 7.009818978
    48   1 9.523046743 9.267457920 7.009818978
    49   2 17.422687622 4.415117298 0.380394729
    50   2 9.985878251 4.415117298 0.380394729
    51   2 21.141092236 10.855582612 0.380394729
    52   2 13.704282865 10.855582612 0.380394729
    53   2 17.422687665 4.415117291 7.317244869
    54   2 9.985878294 4.415117291 7.317244869
    55   2 21.141092280 10.855582605 7.317244869
    56   2 13.704282908 10.855582605 7.317244869
    57   1 2.518088606 4.361454650 1.351467896
    58   1 9.954897977 4.361454650 1.351467896
    59   1 6.236493220 10.801919964 1.351467896
    60   1 13.673302591 10.801919964 1.351467896
    61   1 2.518088649 4.361454643 8.288318036
    62   1 9.954898020 4.361454643 8.288318036
    63   1 6.236493263 10.801919957 8.288318036
    64   1 13.673302635 10.801919957 8.288318036
    65   1 16.959856167 3.613473172 0.072969280
    66   1 9.523046796 3.613473172 0.072969280
    67   1 20.678260782 10.053938486 0.072969280
    68   1 13.241451410 10.053938486 0.072969280
    69   1 16.959856211 3.613473164 7.009819420
    70   1 9.523046839 3.613473164 7.009819420
    71   1 20.678260825 10.053938478 7.009819420
    72   1 13.241451453 10.053938478 7.009819420
    73   2 5.098138192 9.1E-8 3.848820961
    74   2 12.534947564 9.1E-8 3.848820961
    75   2 8.816542806 6.440465404 3.848820961
    76   2 16.253352178 6.440465404 3.848820961
    77   2 5.098138235 8.3E-8 10.785671101
    78   2 12.534947607 8.3E-8 10.785671101
    79   2 8.816542849 6.440465397 10.785671101
    80   2 16.253352221 6.440465397 10.785671101
    81   1 12.472986142 12.880930033 4.819894401
    82   1 19.909795513 12.880930033 4.819894401
    83   1 8.754581528 6.440464719 4.819894401
    84   1 16.191390899 6.440464719 4.819894401
    85   1 12.472986185 12.880930026 11.756744541
    86   1 19.909795557 12.880930026 11.756744541
    87   1 8.754581571 6.440464712 11.756744541
    88   1 16.191390943 6.440464712 11.756744541
    89   1 4.172478132 1.2E-8 3.541396305
    90   1 11.609287504 1.2E-8 3.541396305
    91   1 7.890882746 6.440465326 3.541396305
    92   1 15.327692118 6.440465326 3.541396305
    93   1 4.172478175 5E-9 10.478246445
    94   1 11.609287547 5E-9 10.478246445
    95   1 7.890882789 6.440465319 10.478246445
    96   1 15.327692161 6.440465319 10.478246445
    97   2 12.324550744 4.415115375 3.848820709
    98   2 4.887741372 4.415115375 3.848820709
    99   2 16.042955358 10.855580689 3.848820709
   100   2 8.606145986 10.855580689 3.848820709
   101   2 12.324550787 4.415115367 10.785670849
   102   2 4.887741415 4.415115367 10.785670849
   103   2 16.042955401 10.855580681 10.785670849
   104   2 8.606146029 10.855580681 10.785670849
   105   1 12.355530592 4.361455296 4.819893980
   106   1 4.918721220 4.361455296 4.819893980
   107   1 16.073935206 10.801920609 4.819893980
   108   1 8.637125834 10.801920609 4.819893980
   109   1 12.355530635 4.361455288 11.756744120
   110   1 4.918721263 4.361455288 11.756744120
   111   1 16.073935249 10.801920602 11.756744120
   112   1 8.637125877 10.801920602 11.756744120
   113   1 12.787381758 3.613470486 3.541396271
   114   1 5.350572387 3.613470486 3.541396271
   115   1 16.505786372 10.053935800 3.541396271
   116   1 9.068977001 10.053935800 3.541396271
   117   1 12.787381802 3.613470479 10.478246411
   118   1 5.350572430 3.613470479 10.478246411
   119   1 16.505786416 10.053935793 10.478246411
   120   1 9.068977044 10.053935793 10.478246411
   121   2 16.042954883 2.025349614 3.848821218
   122   2 8.606145512 2.025349614 3.848821218
   123   2 19.761359497 8.465814928 3.848821218
   124   2 12.324550126 8.465814928 3.848821218
   125   2 16.042954927 2.025349607 10.785671358
   126   2 8.606145555 2.025349607 10.785671358
   127   2 19.761359541 8.465814920 10.785671358
   128   2 12.324550169 8.465814920 10.785671358
   129   1 16.073933410 2.079010738 4.819894452
   130   1 8.637124038 2.079010738 4.819894452
   131   1 19.792338024 8.519476052 4.819894452
   132   1 12.355528653 8.519476052 4.819894452
   133   1 16.073933453 2.079010731 11.756744592
   134   1 8.637124082 2.079010731 11.756744592
   135   1 19.792338067 8.519476045 11.756744592
   136   1 12.355528696 8.519476045 11.756744592
   137   1 1.632167798 2.826994038 3.541396624
   138   1 9.068977170 2.826994038 3.541396624
   139   1 5.350572412 9.267459352 3.541396624
   140   1 12.787381784 9.267459352 3.541396624
   141   1 1.632167841 2.826994031 10.478246764
   142   1 9.068977213 2.826994031 10.478246764
   143   1 5.350572456 9.267459345 10.478246764
   144   1 12.787381827 9.267459345 10.478246764
   145   2 12.258736453 12.880930313 6.479757221
   146   2 19.695545825 12.880930313 6.469757221
   147   2 8.540331839 6.440464999 6.469757221
   148   2 15.977141210 6.440464999 6.469757221
   149   2 12.258736496 12.880930306 13.406607360
   150   2 19.695545868 12.880930306 13.406607360
   151   2 8.540331882 6.440464992 13.406607360
   152   2 15.977141254 6.440464992 13.406607360
   153   1 5.331166141 0.766954845 6.788243965
   154   1 12.767975512 0.766954845 6.788243965
   155   1 9.049570755 7.207420159 6.788243965
   156   1 16.486380127 7.207420159 6.788243965
   157   1 5.331166184 0.766954838 13.725094105
   158   1 12.767975556 0.766954838 13.725094105
   159   1 9.049570798 7.207420151 13.725094105
   160   1 16.486380170 7.207420151 13.725094105
   161   1 16.486380702 5.673510068 6.788243516
   162   1 9.049571330 5.673510068 6.788243516
   163   1 20.204785316 12.113975382 6.788243516
   164   1 12.767975944 12.113975382 6.788243516
   165   1 16.486380745 5.673510061 13.725093655
   166   1 9.049571373 5.673510061 13.725093655
   167   1 20.204785359 12.113975375 13.725093655
   168   1 12.767975987 12.113975375 13.725093655
   169   2 12.462655523 4.175912014 6.469758880
   170   2 5.025846151 4.175912014 6.469758880
   171   2 16.181060137 10.616377328 6.469758880
   172   2 8.744250765 10.616377328 6.469758880
   173   2 12.462655566 4.175912007 13.406609019
   174   2 5.025846194 4.175912007 13.406609019
   175   2 16.181060180 10.616377321 13.406609019
   176   2 8.744250808 10.616377321 13.406609019
   177   1 4.107023344 4.233448053 6.788243333
   178   1 11.543832716 4.233448053 6.788243333
   179   1 7.825427958 10.673913367 6.788243333
   180   1 15.262237330 10.673913367 6.788243333
   181   1 4.107023387 4.233448046 13.725093473
   182   1 11.543832759 4.233448046 13.725093473
   183   1 7.825428001 10.673913360 13.725093473
   184   1 15.262237373 10.673913360 13.725093473
   185   1 12.872237203 5.000404470 6.788245450
   186   1 5.435427832 5.000404470 6.788245450
   187   1 16.590641818 11.440869783 6.788245450
   188   1 9.153832446 11.440869783 6.788245450
   189   1 12.872237247 5.000404462 13.725095590
   190   1 5.435427875 5.000404462 13.725095590
   191   1 16.590641861 11.440869776 13.725095590
   192   1 9.153832489 11.440869776 13.725095590
   193   2 1.307441393 2.264553585 6.469759523
   194   2 8.744250764 2.264553585 6.469759523
   195   2 5.025846007 8.705018899 6.469759523
   196   2 12.462655379 8.705018899 6.469759523
   197   2 1.307441436 2.264553578 13.406609663
   198   2 8.744250808 2.264553578 13.406609663
   199   2 5.025846050 8.705018892 13.406609663
   200   2 12.462655422 8.705018892 13.406609663
   201   1 1.717022388 1.440060952 6.788246651
   202   1 9.153831760 1.440060952 6.788246651
   203   1 5.435427002 7.880526266 6.788246651
   204   1 12.872236374 7.880526266 6.788246651
   205   1 1.717022431 1.440060945 13.725096791
   206   1 9.153831803 1.440060945 13.725096791
   207   1 5.435427045 7.880526258 13.725096791
   208   1 12.872236417 7.880526258 13.725096791
   209   1 15.262237079 2.207018097 6.788243067
   210   1 7.825427708 2.207018097 6.788243067
   211   1 18.980641693 8.647483411 6.788243067
   212   1 11.543832322 8.647483411 6.788243067
   213   1 15.262237122 2.207018089 13.725093207
   214   1 7.825427751 2.207018089 13.725093207
   215   1 18.980641736 8.647483403 13.725093207
   216   1 11.543832365 8.647483403 13.725093207
   217   2 10.051690360 12.880930562 3.001331049
   218   2 17.488499731 12.880930562 3.001331049
   219   2 6.333285745 6.440465248 3.001331049
   220   2 13.770095117 6.440465248 3.001331049
   221   2 10.051690403 12.880930555 9.938181189
   222   2 17.488499774 12.880930555 9.938181189
   223   2 6.333285789 6.440465241 9.938181189
   224   2 13.770095160 6.440465241 9.938181189
   225   1 13.260857020 5.673510340 3.319819519
   226   1 5.824047648 5.673510340 3.319819519
   227   1 16.979261634 12.113975653 3.319819519
   228   1 9.542452262 12.113975653 3.319819519
   229   1 13.260857063 5.673510332 10.256669659
   230   1 5.824047691 5.673510332 10.256669659
   231   1 16.979261677 12.113975646 10.256669659
   232   1 9.542452305 12.113975646 10.256669659
   233   1 2.105642892 0.766955018 3.319818703
   234   1 9.542452263 0.766955018 3.319818703
   235   1 5.824047506 7.207420332 3.319818703
   236   1 13.260856878 7.207420332 3.319818703
   237   1 2.105642935 0.766955011 10.256668843
   238   1 9.542452307 0.766955011 10.256668843
   239   1 5.824047549 7.207420325 10.256668843
   240   1 13.260856921 7.207420325 10.256668843
   241   2 13.566178647 2.264553318 3.001331607
   242   2 6.129369276 2.264553318 3.001331607
   243   2 17.284583261 8.705018632 3.001331607
   244   2 9.847773890 8.705018632 3.001331607
   245   2 13.566178690 2.264553310 9.938181747
   246   2 6.129369319 2.264553310 9.938181747
   247   2 17.284583305 8.705018624 9.938181747
   248   2 9.847773933 8.705018624 9.938181747
   249   1 14.485000752 2.207017160 3.319818255
   250   1 7.048191381 2.207017160 3.319818255
   251   1 18.203405367 8.647482473 3.319818255
   252   1 10.766595995 8.647482473 3.319818255
   253   1 14.485000796 2.207017152 10.256668395
   254   1 7.048191424 2.207017152 10.256668395
   255   1 18.203405410 8.647482466 10.256668395
   256   1 10.766596038 8.647482466 10.256668395
   257   1 5.719786092 1.440061854 3.319818129
   258   1 13.156595464 1.440061854 3.319818129
   259   1 9.438190706 7.880527168 3.319818129
   260   1 16.875000078 7.880527168 3.319818129
   261   1 5.719786135 1.440061847 10.256668269
   262   1 13.156595507 1.440061847 10.256668269
   263   1 9.438190749 7.880527161 10.256668269
   264   1 16.875000121 7.880527161 10.256668269
   265   2 2.410964342 4.175911908 3.001332195
   266   2 9.847773713 4.175911908 3.001332195
   267   2 6.129368956 10.616377222 3.001332195
   268   2 13.566178327 10.616377222 3.001332195
   269   2 2.410964385 4.175911901 9.938182334
   270   2 9.847773757 4.175911901 9.938182334
   271   2 6.129368999 10.616377215 9.938182334
   272   2 13.566178371 10.616377215 9.938182334
   273   1 16.875000507 5.000403535 3.319819181
   274   1 9.438191135 5.000403535 3.319819181
   275   1 20.593405121 11.440868849 3.319819181
   276   1 13.156595749 11.440868849 3.319819181
   277   1 16.875000550 5.000403528 10.256669320
   278   1 9.438191178 5.000403528 10.256669320
   279   1 20.593405164 11.440868841 10.256669320
   280   1 13.156595792 11.440868841 10.256669320
   281   1 3.329786697 4.233447609 3.319818007
   282   1 10.766596069 4.233447609 3.319818007
   283   1 7.048191312 10.673912923 3.319818007
   284   1 14.485000683 10.673912923 3.319818007
   285   1 3.329786741 4.233447602 10.256668147
   286   1 10.766596112 4.233447602 10.256668147
   287   1 7.048191355 10.673912916 10.256668147
   288   1 14.485000726 10.673912916 10.256668147

Masses 

     1 1.00794 
     2 15.9994 

