

36 	 atoms 
2  atom types

0.0 7.4368093717  xlo xhi
0.0 6.4404653138  ylo yhi
0.0 6.9368501398  zlo zhi
3.7184046141 4.32E-8 -7.3E-9  xy xz yz


Atoms 

     1   8 2.3386713967 1.118E-7 0.3803927508
     2   1 2.4006323630 4.607E-7 1.3514659578
     3   1 3.2643318534 -6.93E-8 0.0729685057
     4   8 -1.1693367314 2.0253480589 0.3803945122
     5   1 -1.2003184057 2.0790101869 1.3514677180
     6   1 -1.6321672865 2.8269926133 0.0729688386
     7   8 2.5490688788 4.4151172981 0.3803947288
     8   1 2.5180886055 4.3614546505 1.3514678963
     9   1 2.0862374240 3.6134731718 0.0729692798
    10   8 5.0981381919 9.06E-8 3.8488209611
    11   1 5.0361769136 -5.945E-7 4.8198944014
    12   1 4.1724781321 1.21E-8 3.5413963052
    13   8 -2.5490679998 4.4151153748 3.8488207089
    14   1 -2.5180881517 4.3614552956 4.8198939804
    15   1 -2.0862369851 3.6134704864 3.5413962711
    16   8 1.1693361400 2.0253496140 3.8488212177
    17   1 1.2003146667 2.0790107381 4.8198944518
    18   1 1.6321677982 2.8269940381 3.5413966242
    19   8 4.8219272247 -3.146E-7 6.4697572206
    20   1 5.3311661407 0.7669548449 6.7882439654
    21   1 1.6127619584 5.6735100683 6.7882435156
    22   8 -2.4109632206 4.1759120144 6.4697588796
    23   1 4.1070233441 4.2334480531 6.7882433334
    24   1 -2.0013815400 5.0004044696 6.7882454498
    25   8 1.3074413927 2.2645535855 6.4697595227
    26   1 1.7170223880 1.4400609519 6.7882466511
    27   1 0.3886183358 2.2070180968 6.7882430674
    28   8 2.6148811313 -6.53E-8 3.0013310494
    29   1 -1.6127617239 5.6735103397 3.3198195188
    30   1 2.1056428918 0.7669550181 3.3198187032
    31   8 -1.3074400961 2.2645533177 3.0013316069
    32   1 -0.3886179909 2.2070171596 3.3198182548
    33   1 5.7197860921 1.4400618542 3.3198181291
    34   8 2.4109643416 4.1759119082 3.0013321945
    35   1 2.0013817632 5.0004035349 3.3198191807
    36   1 3.3297866974 4.2334476095 3.3198180074
