288  
22   

1    
  0.0050000002334379   0.0086602539030689   0.0000000000000000
  -0.2652722850   -0.0817378532    0.0314388928
   0.0004984594   -0.0001781679    0.0000150958
   0.0004984462    0.0008142531    0.0000150900
  -0.0003610016    0.0003180407    0.0000150952
  -0.0001590110   -0.0003246498    0.0000165630
   0.0001645468   -0.0000657982    0.0000165611
   0.0001645449    0.0002357673    0.0000165616
  -0.0000966660    0.0000849840    0.0000165746
   0.0335009958    0.0174242210    0.0091645028
  -0.0001819962    0.0000840479    0.0000364317
  -0.0001816446   -0.0003884614    0.0000362594
   0.0002270837   -0.0001524393    0.0000400745
   0.0001544548    0.0001942130    0.0000350091
  -0.0000329234    0.0000337581    0.0000398454
  -0.0000328910   -0.0001305238    0.0000399410
   0.0001092589   -0.0000484502    0.0000378567
   0.1967963648    0.0166507573   -0.0358872701
  -0.0001931145    0.0001086320    0.0000448263
  -0.0001519917   -0.0004067367    0.0000457155
   0.0002469180   -0.0001768555    0.0000635827
   0.0001480090    0.0001633828    0.0000401568
  -0.0000049706    0.0000379783    0.0000598279
  -0.0000021021   -0.0001172626    0.0000596181
   0.0001210825   -0.0000461953    0.0000502908
  -0.0005066697   -0.0008308435    0.0000078544
   0.0020928904    0.0006698194    0.0000078540
   0.0001516905    0.0003168391    0.0000078555
  -0.0005068840    0.0021665761    0.0000078532
  -0.0000925170   -0.0001078379    0.0000093191
   0.0001022964    0.0000046667    0.0000093160
   0.0000456367    0.0001324457    0.0000093064
  -0.0000925415    0.0001180674    0.0000093092
   0.0002113829    0.0004641101    0.0000361916
  -0.0009300206   -0.0001974014   -0.0003409349
  -0.0000939530   -0.0001196699    0.0000310143
   0.0002114735   -0.0008363487    0.0003829218
   0.0000298367    0.0001091901    0.0000309248
  -0.0000857226    0.0000424075    0.0001195201
  -0.0000466152   -0.0000310754    0.0000323632
   0.0000298417   -0.0000315433   -0.0000541751
   0.0001703173    0.0001501403    0.0000639197
  -0.0009327848   -0.0006556487    0.0002443449
  -0.0001134540    0.0000160726    0.0000534796
   0.0000873203   -0.0020308332   -0.0003305697
   0.0000083426    0.0000896148    0.0000514291
  -0.0000892564    0.0000292399    0.0000121670
  -0.0000611673    0.0000400544    0.0000551896
   0.0000081858    0.0000475570    0.0001035017
  -0.0005095857    0.0021188925    0.0000088189
   0.0001514364    0.0002590332    0.0000088203
   0.0021064382    0.0006275385    0.0000088218
  -0.0005095816   -0.0008830579    0.0000088202
  -0.0000926392    0.0000610931    0.0000102765
   0.0000452359    0.0000752517    0.0000102735
   0.0001019091   -0.0000515737    0.0000102757
  -0.0000926512   -0.0001639051    0.0000102719
   0.0001726226   -0.0009135583   -0.0003240645
  -0.0000912885   -0.0001686406    0.0000341842
  -0.0009930916   -0.0002853307    0.0004324341
   0.0001709183    0.0003844120    0.0000253180
   0.0000205498   -0.0000878758    0.0001203888
  -0.0000493885   -0.0000835986    0.0000324159
  -0.0000889033   -0.0000108092   -0.0000568561
   0.0000205078    0.0000523048    0.0000349770
   0.0008242288   -0.0017391362    0.0003979788
  -0.0002006450   -0.0001566620    0.0000612340
  -0.0005549270   -0.0003926887   -0.0000477341
   0.0005196844    0.0000581230    0.0000193505
   0.0000451009   -0.0000535995    0.0000103148
  -0.0000844322   -0.0000959177    0.0000503269
  -0.0001073403   -0.0001002512    0.0000860520
   0.0000412467   -0.0000185008    0.0000619001
   0.0000355890   -0.0009368510    0.0008140992
   0.0002744955   -0.0002717500   -0.0002370393
   0.0000915452    0.0004429654   -0.0001407158
  -0.0001712878    0.0002918652    0.0001388875
   0.0000355751   -0.0009368531   -0.0008002835
   0.0002744872   -0.0002717463    0.0002508632
   0.0000915376    0.0004429567    0.0001545317
  -0.0001712961    0.0002918617   -0.0001250657
  -0.0000080455    0.0002036894   -0.0001135784
  -0.0001194608    0.0000950786    0.0001126740
  -0.0000809109   -0.0001453790    0.0000848099
   0.0000033338   -0.0000968911   -0.0000209602
  -0.0003974183    0.0009021987    0.0008557616
  -0.0003097392    0.0002087141   -0.0001349083
  -0.0001161284   -0.0003061815   -0.0000533567
   0.0000489485   -0.0002114719    0.0001017302
   0.0001297217    0.0010445441   -0.0007230992
  -0.0002421454    0.0000897073    0.0001133665
  -0.0001961173   -0.0002747525    0.0001074708
   0.0000554210   -0.0001298085    0.0000092690
   0.0001326126    0.0005017900    0.0003496630
  -0.0001823444    0.0000616557    0.0000096811
  -0.0001665648   -0.0002008598    0.0000090433
   0.0000271166   -0.0000891765    0.0000898086
  -0.0001277350    0.0000364543    0.0000260278
   0.0003184804    0.0005052853    0.0004974371
   0.0001355283   -0.0001155436    0.0000260328
   0.0000824726    0.0000965028   -0.0016110381
  -0.0001277260    0.0000364602   -0.0000050728
   0.0003184724    0.0005053114   -0.0004764912
   0.0001355353   -0.0001155360   -0.0000050745
   0.0000824623    0.0000965321    0.0016319936
   0.0000709401   -0.0000605000    0.0000303588
  -0.0000524778   -0.0001737801   -0.0001161903
  -0.0000213626    0.0000016384    0.0000273086
   0.0000640912    0.0000577795    0.0003299114
   0.0001170526   -0.0000796872    0.0000406111
  -0.0002274062   -0.0004883864    0.0003260603
  -0.0000608665    0.0000369545    0.0000447085
  -0.0003526413   -0.0005768927   -0.0017610913
   0.0001316218   -0.0000130416    0.0000313139
  -0.0002670086   -0.0003435113   -0.0003109857
  -0.0000308113   -0.0000668492    0.0000617525
   0.0000774088   -0.0005139903    0.0009153093
   0.0001022323   -0.0000196450    0.0000736970
  -0.0001403639   -0.0001998653    0.0003202409
  -0.0000167209   -0.0000694702    0.0000474688
   0.0001086564   -0.0001981835   -0.0003649727
  -0.0008307584   -0.0003868779    0.0008203626
   0.0003379144    0.0000478588    0.0001420254
   0.0003373575    0.0003531043   -0.0001369467
  -0.0003723945    0.0001541865   -0.0002329728
  -0.0008307770   -0.0003868838   -0.0007995865
   0.0003379268    0.0000478786   -0.0001212468
   0.0003373836    0.0003531551    0.0001577193
  -0.0003723672    0.0001542469    0.0002537512
   0.0001905566    0.0001932312   -0.0000989526
  -0.0000815099    0.0000289048   -0.0000168680
  -0.0000766424   -0.0000842533    0.0000828127
   0.0001417149   -0.0000001583    0.0001123314
   0.0010417062    0.0002935917    0.0008822777
  -0.0002055326    0.0000155855    0.0001076729
  -0.0001925088   -0.0001973018   -0.0000392517
   0.0003211929   -0.0001099846   -0.0001174197
   0.0004792547   -0.0001700906   -0.0006201020
  -0.0001140610   -0.0000029884    0.0000185768
  -0.0002302217   -0.0001111238    0.0002216633
   0.0002904385    0.0000890485    0.0001766801
   0.0002325437   -0.0000147294    0.0004169440
  -0.0000738316    0.0000093622    0.0000849844
  -0.0001473062   -0.0000527545   -0.0000837704
   0.0001929366    0.0001033978   -0.0000302982
  -0.0001098209   -0.0002755895    0.0000485036
   0.0000555474   -0.0001291054   -0.0001018769
   0.0000218404    0.0002173972   -0.0000873785
  -0.0001170168    0.0001373472   -0.0000102796
   0.0319319210   -0.0081906579   -0.0125722145
   0.0007632287   -0.0005172770    0.0001190490
   0.0001552163    0.0007859530    0.0000291423
  -0.0002831313    0.0005346321   -0.0001167361
  -0.0000813554    0.0000991908   -0.0000728921
  -0.0000699023    0.0000966579   -0.0000137555
  -0.0000640479   -0.0000769344    0.0000030096
  -0.0000559691   -0.0000494494   -0.0000295679
  -0.0027008519   -0.0001050433    0.0005197596
  -0.0003083434    0.0004758958   -0.0000729576
  -0.0000933326   -0.0005733122   -0.0000938960
  -0.0000401875   -0.0001863018   -0.0000173059
  -0.0000204593   -0.0000860917   -0.0000461521
  -0.0000941288   -0.0001057052   -0.0000198176
  -0.0001209650    0.0000326308    0.0000073338
  -0.0000191431    0.0001005093   -0.0000279675
   0.0001260868   -0.0004825857    0.0000379907
  -0.0001490102   -0.0002826262   -0.0000247222
  -0.0008166974    0.0001466603   -0.0001377345
   0.0002250462    0.0015376928   -0.0001112229
  -0.0000553058   -0.0000059951   -0.0000496689
   0.0001175723    0.0001326066    0.0000557378
   0.0000840705   -0.0000867120   -0.0000496395
  -0.0000481809   -0.0001550972   -0.0002449089
  -0.0002210801    0.0000531991   -0.0000639783
   0.0008196488    0.0013524521   -0.0003867455
   0.0002185705   -0.0002015274   -0.0000641203
   0.0255197687    0.0548076505    0.0236506587
   0.0000074973   -0.0001285489   -0.0000642081
   0.0000169722   -0.0000916539   -0.0000189176
  -0.0000093842   -0.0000356420    0.0000330393
   0.0000147784   -0.0000197854   -0.0000239910
  -0.0002732426   -0.0011564693    0.0001708735
   0.0000291709   -0.0001356359   -0.0000228243
  -0.0022609582   -0.0012106813   -0.0003323383
   0.0000010399    0.0001196503   -0.0000114477
   0.0001058879   -0.0000852437   -0.0000314646
  -0.0000192934   -0.0001626880   -0.0000434016
  -0.0000136552   -0.0000204357   -0.0000303774
   0.0001288429    0.0000860811    0.0000148148
   0.0002347500   -0.0001739635   -0.0000239546
  -0.0002213953   -0.0004975436   -0.0000101253
  -0.0001529287    0.0000373833   -0.0000261074
  -0.0078827041   -0.0162439114   -0.0111902793
  -0.0001904431   -0.0001529861    0.0000419914
   0.0001709479    0.0000480158   -0.0000166618
   0.0001707079    0.0002099247   -0.0000934700
  -0.0001458588    0.0000659188   -0.0001078704
  -0.0222156077    0.0287173510   -0.0139715536
   0.0005981850    0.0001014034   -0.0001229088
   0.0005945039    0.0006103721    0.0000223631
  -0.0008299223    0.0004841357    0.0001112363
   0.0001466165    0.0001990089   -0.0000576441
  -0.0000227508    0.0000768256   -0.0000384168
  -0.0000238462   -0.0000578931   -0.0000243269
   0.0001146040    0.0000169094   -0.0000264006
   0.0129137264   -0.0041730933    0.0060069469
  -0.0002014728    0.0001123207   -0.0000221811
  -0.0002163567   -0.0003321254   -0.0000494553
   0.0002752585   -0.0001080484   -0.0000404776
   0.0000941876    0.0001463698   -0.0000250866
  -0.0000684257    0.0000543134   -0.0000405464
  -0.0000497517   -0.0000084955   -0.0000132672
   0.0000877019    0.0000394481    0.0000137532
   0.0011101669    0.0008663549   -0.0001140758
  -0.0004741669   -0.0000316472    0.0000415357
  -0.0001848580   -0.0001379400   -0.0000217552
   0.0005901886   -0.0005331704   -0.0001460592
  -0.0041943625   -0.0079160198    0.0030369484
   0.0003892036   -0.0001365801   -0.0000419195
   0.0003892639    0.0005899963   -0.0000414347
  -0.0002399755    0.0002267009   -0.0000423580
  -0.0004839397   -0.0009220575   -0.0000379721
   0.0002658944   -0.0000947421   -0.0000435825
   0.0002658911    0.0003764538   -0.0000440696
  -0.0001421666    0.0001408409   -0.0000431065
   0.0001902646   -0.0001065643   -0.0000417778
  -0.0001062981   -0.0003026800   -0.0001260871
  -0.0000806417    0.0000451061   -0.0000350085
   0.0004953067    0.0006446498    0.0019748046
   0.0001596349   -0.0000837033   -0.0000188501
  -0.0000589997   -0.0002226249    0.0000501269
  -0.0000459211    0.0000313836   -0.0000244698
   0.0003207056    0.0004152986   -0.0005386164
   0.0009085819    0.0009266315   -0.0011541223
  -0.0001029644    0.0000676520   -0.0000586159
  -0.0001068196   -0.0002430849    0.0000257340
   0.0002114294   -0.0000840397    0.0000215549
   0.0003963537    0.0004958626    0.0002613128
  -0.0000608247    0.0000582588    0.0000036026
  -0.0000627888   -0.0001770192   -0.0000665740
   0.0001723926   -0.0000538140   -0.0000625752
  -0.0003098511   -0.0004612756   -0.0000473029
   0.0008774846    0.0002243233    0.0007320264
   0.0001049434    0.0002632673   -0.0000456954
  -0.0003097930    0.0009088097   -0.0008173049
  -0.0001708593   -0.0002175019   -0.0000463363
   0.0003009732    0.0000549494   -0.0004850039
   0.0000652443    0.0001940581   -0.0000471836
  -0.0001709067    0.0003289326    0.0003891395
   0.0003431795    0.0003539839   -0.0001469767
  -0.0002833178    0.0000241602   -0.0001752123
  -0.0001451967   -0.0000770951   -0.0000024519
   0.0002636981   -0.0001693692    0.0002671972
   0.0001742702    0.0002446753    0.0000435176
  -0.0002005802    0.0000370997    0.0001093438
  -0.0001122286   -0.0000450424   -0.0000457436
   0.0001481062   -0.0000518349   -0.0002317043
  -0.0005020706    0.0001833735   -0.0006484989
  -0.0001112037    0.0003038990    0.0000806295
  -0.0000627444   -0.0002803207    0.0001656201
  -0.0000351594   -0.0000934073   -0.0000519877
  -0.0002126239    0.0001605889    0.0003285480
  -0.0000642397    0.0002113266   -0.0000921065
  -0.0000451475   -0.0001695206   -0.0001848168
  -0.0000405278   -0.0000605261    0.0000019099
  -0.0003070963    0.0008283097    0.0007283813
   0.0001061317    0.0001790445   -0.0000469570
   0.0008790160    0.0001439744   -0.0008263691
  -0.0003070520   -0.0005407145   -0.0000459224
  -0.0001685610    0.0002462544   -0.0004855892
   0.0000666220    0.0001103808   -0.0000477171
   0.0003025414   -0.0000269034    0.0003911631
  -0.0001685993   -0.0002988660   -0.0000483000
   0.0000774597   -0.0002902318   -0.0001823448
  -0.0001102929   -0.0002266395   -0.0000079521
  -0.0003709540    0.0000628389    0.0002362602
   0.0000727740    0.0004230882   -0.0001266455
   0.0000388215   -0.0002115280    0.0001118819
  -0.0000960700   -0.0001825775   -0.0000422535
  -0.0002258634    0.0000273151   -0.0002180825
   0.0000393125    0.0002149917    0.0000300497
  -0.0000788059   -0.0004889945   -0.0004328529
  -0.0000106033   -0.0001204293   -0.0000160558
  -0.0004571952   -0.0002315349    0.0006745765
  -0.0000190907    0.0000546176   -0.0000479965
  -0.0000304814   -0.0002764098    0.0002601361
  -0.0000144941   -0.0001098295   -0.0000282820
  -0.0001835898   -0.0000844653   -0.0004222607
  -0.0000072740    0.0000266696   -0.0000040371

1    
 -0.0050000002334379  -0.0086602539030689   0.0000000000000000
   0.2641966303    0.0884396646   -0.0236793214
  -0.0004411814    0.0001791642    0.0000150958
  -0.0004411980   -0.0008132583    0.0000150900
   0.0004182777   -0.0003170459    0.0000150952
   0.0002164412    0.0003256523    0.0000165630
  -0.0001071156    0.0000668058    0.0000165611
  -0.0001071177   -0.0002347662    0.0000165616
   0.0001540036   -0.0000839804    0.0000165746
  -0.0344711622   -0.0182423555   -0.0128916811
   0.0002647088   -0.0000877171    0.0000405601
   0.0002643679    0.0003847202    0.0000403850
  -0.0001444182    0.0001487484    0.0000369166
  -0.0000717780   -0.0001979267    0.0000418271
   0.0001156308   -0.0000374503    0.0000376673
   0.0001156008    0.0001268242    0.0000377636
  -0.0000265667    0.0000447468    0.0000396556
  -0.1934749723   -0.0205932726    0.0338087330
   0.0003160347   -0.0001081325    0.0000666549
   0.0002749105    0.0004081012    0.0000659368
  -0.0001234945    0.0001776508    0.0000479036
  -0.0000249892   -0.0001623991    0.0000692452
   0.0001276961   -0.0000371864    0.0000493077
   0.0001248305    0.0001181162    0.0000494302
   0.0000019030    0.0000470905    0.0000588193
   0.0004833898    0.0008839935    0.0000078544
  -0.0021125568   -0.0006145264    0.0000078519
  -0.0001813495   -0.0002600039    0.0000078555
   0.0004835611   -0.0021176181    0.0000078553
   0.0000643724    0.0001639027    0.0000093191
  -0.0001312574    0.0000509895    0.0000093165
  -0.0000746230   -0.0000758505    0.0000093064
   0.0000643519   -0.0000610350    0.0000093087
  -0.0002426477   -0.0004064315    0.0000279899
   0.0008980199    0.0002546293    0.0004023923
   0.0000657874    0.0001756766    0.0000322563
  -0.0002423713    0.0008949795   -0.0003213639
  -0.0000588213   -0.0000527222    0.0000327411
   0.0000571776    0.0000143042   -0.0000555518
   0.0000180953    0.0000872884    0.0000315569
  -0.0000588090    0.0000875388    0.0001181502
  -0.0002325870   -0.0000284044    0.0000462892
   0.0008667870    0.0007742209   -0.0001327971
   0.0000524944    0.0001043617    0.0000569177
  -0.0001524220    0.0021619902    0.0004436229
  -0.0000699495    0.0000310794    0.0000566801
   0.0000280017    0.0000916059    0.0000958166
  -0.0000000394    0.0000802858    0.0000528694
  -0.0000698298    0.0000724624    0.0000045255
   0.0004754130   -0.0021684473    0.0000088164
  -0.0001792915   -0.0003164749    0.0000088203
  -0.0021455705   -0.0006841088    0.0000088242
   0.0004753961    0.0008292656    0.0000088202
   0.0000630736   -0.0001186909    0.0000102770
  -0.0000740273   -0.0001324691    0.0000102735
  -0.0001307413   -0.0000047336    0.0000102752
   0.0000630612    0.0001071602    0.0000102719
  -0.0002105001    0.0008586030    0.0003881292
   0.0000508195    0.0001165256    0.0000316531
   0.0009568276    0.0002320378   -0.0003686097
  -0.0002084553   -0.0004379963    0.0000413567
  -0.0000602047    0.0000357652   -0.0000538347
   0.0000092833    0.0000312786    0.0000340678
   0.0000488185   -0.0000420213    0.0001233937
  -0.0000601526   -0.0001048709    0.0000312656
  -0.0008740452    0.0016115821   -0.0002856380
   0.0001430343    0.0000342399    0.0000492526
   0.0004997867    0.0002703227    0.0001587145
  -0.0005758432   -0.0001834962    0.0000908038
  -0.0001017612   -0.0000684425    0.0000977886
   0.0000274483   -0.0000263843    0.0000577642
   0.0000504579   -0.0000224799    0.0000219960
  -0.0000979519   -0.0001042000    0.0000462952
  -0.0001005980    0.0009318913   -0.0008034611
  -0.0003349187    0.0002708083    0.0002503033
  -0.0001521741   -0.0004452766    0.0001549438
   0.0001092785   -0.0002936796   -0.0001251598
  -0.0001006150    0.0009318963    0.0008172839
  -0.0003349289    0.0002708131   -0.0002364802
  -0.0001521821   -0.0004452870   -0.0001411282
   0.0001092707   -0.0002936842    0.0001389819
  -0.0000750429   -0.0001994204    0.0001733676
   0.0000354701   -0.0000914669   -0.0000534335
  -0.0000030110    0.0001492975   -0.0000259447
  -0.0000867469    0.0001008016    0.0000799917
   0.0003180674   -0.0008940571   -0.0008004925
   0.0002256347   -0.0002057291    0.0001917945
   0.0000321702    0.0003105257    0.0001107259
  -0.0001319657    0.0002151637   -0.0000446246
  -0.0002579280   -0.0010417876    0.0008348169
   0.0001090872   -0.0000905449   -0.0000068226
   0.0000630519    0.0002744689   -0.0000014237
  -0.0001879849    0.0001292501    0.0000972235
  -0.0002638912   -0.0005013750   -0.0002454589
   0.0000493464   -0.0000623591    0.0000971184
   0.0000335547    0.0002004184    0.0000981872
  -0.0001597600    0.0000886689    0.0000170376
   0.0001543954   -0.0000844304   -0.0000056722
  -0.0002922832   -0.0005525870   -0.0004748960
  -0.0001102264    0.0000683454   -0.0000056670
  -0.0000540848   -0.0001400245    0.0016351666
   0.0001544048   -0.0000844246    0.0000266272
  -0.0002922928   -0.0005525639    0.0004958434
  -0.0001102198    0.0000683533    0.0000266253
  -0.0000540982   -0.0001400003   -0.0016142246
  -0.0000251324   -0.0000068265    0.0000381122
   0.0000986456    0.0001065023    0.0001841134
   0.0000676501   -0.0000692145    0.0000411732
  -0.0000186630   -0.0001262997   -0.0002612772
  -0.0000714663    0.0000126701    0.0000254711
   0.0002729472    0.0004201601   -0.0002583928
   0.0001073660   -0.0001044669    0.0000213550
   0.0003972626    0.0005067448    0.0018351555
  -0.0000734596   -0.0000947353    0.0000780660
   0.0003250403    0.0002352704    0.0004185593
   0.0000898224   -0.0000416289    0.0000473785
  -0.0000202168    0.0004051148   -0.0008094159
  -0.0000439622   -0.0000882780    0.0000354705
   0.0001988803    0.0000919745   -0.0002099721
   0.0000756182   -0.0000389722    0.0000619096
  -0.0000508089    0.0000891586    0.0004751810
   0.0008583316    0.0004306329   -0.0008027296
  -0.0003091334    0.0000000622   -0.0001213574
  -0.0003096913   -0.0003042426    0.0001581370
   0.0004011618   -0.0001044461    0.0002531908
   0.0008583213    0.0004306279    0.0008235135
  -0.0003091223    0.0000000818    0.0001421362
  -0.0003096665   -0.0003041931   -0.0001373647
   0.0004011911   -0.0001043868   -0.0002324134
  -0.0001349811   -0.0001310184    0.0001684052
   0.0001370410    0.0000328407    0.0000854117
   0.0001324050    0.0001455812   -0.0000144520
  -0.0000861939    0.0000612897   -0.0000436198
  -0.0009848970   -0.0002257896   -0.0008183059
   0.0002606762    0.0000461999   -0.0000410861
   0.0002486320    0.0002585898    0.0001061038
  -0.0002661551    0.0001705746    0.0001838308
  -0.0004224051    0.0002848014    0.0007284936
   0.0001684979    0.0001157191    0.0000906265
   0.0002856001    0.0002233961   -0.0001129941
  -0.0002354833    0.0000223686   -0.0000669272
  -0.0001768362    0.0001283235   -0.0003070314
   0.0001283883    0.0001032997    0.0000247373
   0.0002023312    0.0001648812    0.0001938828
  -0.0001379845    0.0000083176    0.0001395568
   0.0000199776    0.0002737241   -0.0001431444
  -0.0001442829    0.0001279888    0.0000076030
  -0.0001106175   -0.0002187681   -0.0000065959
   0.0000275807   -0.0001388599   -0.0000838036
  -0.0315087307    0.0079489127    0.0122532720
  -0.0008515253    0.0005184283   -0.0002158539
  -0.0002435890   -0.0007889387   -0.0001263683
   0.0001925060   -0.0005353979    0.0000197887
  -0.0000407660   -0.0000644642    0.0000231775
  -0.0000527819   -0.0000623502   -0.0000358917
  -0.0000585945    0.0001111035   -0.0000528110
  -0.0000662955    0.0000836981   -0.0000202000
   0.0025648241    0.0001467261   -0.0005634060
   0.0001837521   -0.0004427304    0.0000246358
  -0.0000298515    0.0006091489    0.0000461228
  -0.0000818149    0.0002200720   -0.0000307842
  -0.0001020290    0.0000517034    0.0000014906
  -0.0000287067    0.0000711758   -0.0000248298
  -0.0000018713   -0.0000675031   -0.0000519429
  -0.0001032230   -0.0001351233   -0.0000165000
  -0.0002476623    0.0004474384   -0.0000807827
   0.0000256370    0.0002486139   -0.0000182293
   0.0006950699   -0.0001832672    0.0000950747
  -0.0003357112   -0.0015743313    0.0000655494
   0.0000903802   -0.0000765725   -0.0000569368
  -0.0000830952   -0.0002153864   -0.0001619720
  -0.0000497280    0.0000045129   -0.0000569801
   0.0000835710    0.0000738375    0.0001382530
   0.0002567552   -0.0001366067   -0.0000450304
  -0.0007823508   -0.0014304213    0.0002756635
  -0.0001851295    0.0001194050   -0.0000448888
  -0.0266024051   -0.0574364269   -0.0248910019
   0.0000211638    0.0000062959    0.0000227037
   0.0000112542   -0.0000308105   -0.0000225046
   0.0000375384   -0.0000873709   -0.0000745029
   0.0000138860   -0.0001028478   -0.0000173821
   0.0003013728    0.0010291690   -0.0002094707
  -0.0000010722    0.0000133902   -0.0000170074
   0.0023054793    0.0010912396    0.0002939028
   0.0000287275   -0.0002424953   -0.0000284838
  -0.0000114225   -0.0000155467   -0.0000276553
   0.0001138815    0.0000618860   -0.0000158205
   0.0001083333   -0.0000804567   -0.0000287322
  -0.0000345297   -0.0001873672   -0.0000737145
  -0.0001404559    0.0000732982   -0.0000335815
   0.0003153673    0.0003957162   -0.0000472772
   0.0002478282   -0.0001384532   -0.0000314236
   0.0080515959    0.0163086739    0.0113050177
   0.0002206681    0.0002372365   -0.0001491613
  -0.0001404752    0.0000366891   -0.0000899898
  -0.0001405880   -0.0001244914   -0.0000130226
   0.0001761913    0.0000197171    0.0000010931
   0.0217035411   -0.0280491347    0.0135438603
  -0.0005666207   -0.0000170863    0.0000134363
  -0.0005659208   -0.0005252843   -0.0001320929
   0.0008619738   -0.0003969919   -0.0002205640
  -0.0000510364   -0.0000942310   -0.0000078767
   0.0001182581    0.0000277859   -0.0000273594
   0.0001194425    0.0001622609   -0.0000415209
  -0.0000190565    0.0000874258   -0.0000393615
  -0.0127311065    0.0043724933   -0.0060584088
   0.0002966373   -0.0000073095   -0.0000419788
   0.0003124477    0.0004370686   -0.0000145583
  -0.0001800357    0.0002124451   -0.0000237168
  -0.0000699965   -0.0000272413   -0.0000088036
   0.0000927282    0.0000648084    0.0000065173
   0.0000742270    0.0001272283   -0.0000207877
  -0.0000635134    0.0000790982   -0.0000477652
  -0.0010919522   -0.0007395254    0.0000794974
   0.0004974584    0.0001511867   -0.0000737385
   0.0002100872    0.0002565684   -0.0000106048
  -0.0005683272    0.0006518296    0.0001140095
   0.0042572374    0.0078971537   -0.0033866221
  -0.0002906203    0.0001389810   -0.0000424030
  -0.0002906239   -0.0005875708   -0.0000419148
   0.0003386183   -0.0002242792   -0.0000419988
   0.0005823651    0.0009244228   -0.0000431577
  -0.0001674088    0.0000971029   -0.0000430733
  -0.0001674747   -0.0003741030   -0.0000433454
   0.0002406603   -0.0001384858   -0.0000435526
  -0.0000678210    0.0000720702   -0.0000167125
   0.0002287169    0.0002677327    0.0000669591
   0.0002035072   -0.0000798142   -0.0000235084
  -0.0003791185   -0.0006909176   -0.0020314662
  -0.0000371008    0.0000490990   -0.0000382578
   0.0001816522    0.0001878762   -0.0001067442
   0.0001687494   -0.0000661875   -0.0000326322
  -0.0001993069   -0.0004523598    0.0004791162
  -0.0007866837   -0.0008828440    0.0011101912
   0.0002237458   -0.0000326958    0.0000079981
   0.0002279954    0.0002778619   -0.0000768250
  -0.0000906366    0.0001185531   -0.0000721242
  -0.0002752217   -0.0004592996   -0.0003134818
   0.0001816896   -0.0000232367   -0.0000527091
   0.0001838990    0.0002117943    0.0000178621
  -0.0000515017    0.0000884805    0.0000134362
   0.0002666608    0.0005415153   -0.0000460629
  -0.0009215150   -0.0001445755   -0.0008210482
  -0.0001513469   -0.0001811592   -0.0000457870
   0.0002665553   -0.0008276809    0.0007282749
   0.0001264256    0.0002985083   -0.0000468013
  -0.0003466779    0.0000253727    0.0003900239
  -0.0001113585   -0.0001121646   -0.0000471067
   0.0001263552   -0.0002466120   -0.0004841183
  -0.0003758998   -0.0002304380    0.0000963598
   0.0002513167    0.0000981676    0.0001227052
   0.0001139009    0.0001986988   -0.0000499263
  -0.0002964376    0.0002904861   -0.0003197917
  -0.0002064332   -0.0001220000   -0.0000951009
   0.0001688631    0.0000852215   -0.0001596695
   0.0000809389    0.0001667412   -0.0000047188
  -0.0001802190    0.0001731647    0.0001812462
   0.0004134606   -0.0000924443    0.0005997798
   0.0000213263   -0.0002155288   -0.0001273466
  -0.0000264058    0.0003694451   -0.0002136518
  -0.0000531754    0.0001818409    0.0000046158
   0.0001242568   -0.0000708234   -0.0003739866
  -0.0000253056   -0.0001228313    0.0000459209
  -0.0000440830    0.0002581711    0.0001396025
  -0.0000479939    0.0001490011   -0.0000475872
   0.0002625672   -0.0009120400   -0.0008191786
  -0.0001473123   -0.0002637385   -0.0000462900
  -0.0009226868   -0.0002262902    0.0007356234
   0.0002625810    0.0004579091   -0.0000491548
   0.0001255914   -0.0003310857    0.0003889138
  -0.0001081269   -0.0001947715   -0.0000482777
  -0.0003443342   -0.0000560026   -0.0004878573
   0.0001255475    0.0002153025   -0.0000465878
  -0.0001658331    0.0001980873    0.0001284911
   0.0000208495    0.0001347254   -0.0000457665
   0.0002819096   -0.0001561772   -0.0002901708
  -0.0001597239   -0.0005155368    0.0000748150
  -0.0001275164    0.0001195136   -0.0001635932
   0.0000066402    0.0000905601   -0.0000095763
   0.0001365272   -0.0001200966    0.0001662919
  -0.0001275381   -0.0003072481   -0.0000830227
   0.0000506759    0.0003690153    0.0003853810
  -0.0000184865    0.0000012230   -0.0000297082
   0.0004290640    0.0001108827   -0.0007229353
  -0.0000089484   -0.0001741891    0.0000024892
   0.0000022734    0.0001570600   -0.0003035762
  -0.0000144019   -0.0000095182   -0.0000160028
   0.0001546865   -0.0000360385    0.0003788151
  -0.0000208257   -0.0001463298   -0.0000404956

1    
  0.0000000000622761  -0.0000000000105235   0.0100000000000000
   0.0531300483    0.0000003256   -0.6015190439
   0.0000286390    0.0000004982   -0.0002798680
   0.0000286241    0.0000004974   -0.0002798738
   0.0000286380    0.0000004974   -0.0002798686
   0.0000287151    0.0000005012    0.0012044075
   0.0000287156    0.0000005038    0.0002618236
   0.0000287136    0.0000005006    0.0002618242
   0.0000286688    0.0000005018    0.0002618372
   0.0624017116   -0.0000016990    0.4328256987
   0.0000372375   -0.0000018507    0.0001660369
   0.0000408740   -0.0000039429    0.0001658998
   0.0000408685    0.0000002469    0.0001658975
   0.0000345651   -0.0000018497   -0.0006334165
   0.0000435185   -0.0000018498   -0.0000740756
   0.0000415390   -0.0000007069   -0.0000739911
   0.0000415393   -0.0000029933   -0.0000739914
  -0.1081003407    0.0000004720    0.0896543787
   0.0000394972    0.0000004347    0.0002194552
   0.0000592300   -0.0000100203    0.0002012728
   0.0000592276    0.0000108901    0.0002012700
   0.0000320471    0.0000004321   -0.0005269565
   0.0000720227    0.0000004318   -0.0000763042
   0.0000622452    0.0000058835   -0.0000668210
   0.0000622835   -0.0000050204   -0.0000668315
  -0.0000117939    0.0000266639   -0.0010677020
  -0.0000166741    0.0000266812   -0.0010656490
  -0.0000142482    0.0000280820   -0.0002170534
  -0.0000142459    0.0000308861   -0.0010656465
  -0.0000148082    0.0000284573    0.0005026846
  -0.0000138077    0.0000284742    0.0005014830
  -0.0000143147    0.0000281946    0.0002098173
  -0.0000143180    0.0000276105    0.0005014754
   0.0003894335   -0.0002002455    0.0004586749
  -0.0003932806   -0.0001813751    0.0004300090
  -0.0000137176    0.0000270802    0.0001301391
  -0.0000183000    0.0004362747    0.0004054165
  -0.0001050989    0.0000795066   -0.0002195091
   0.0000747518    0.0000774714   -0.0002106626
  -0.0000147786    0.0000288682   -0.0000593146
  -0.0000134094   -0.0000715654   -0.0002029351
  -0.0001255242    0.0001253403    0.0003004751
   0.0001229189    0.0001907104    0.0005295078
  -0.0000264611    0.0000558752    0.0001703519
  -0.0000764412   -0.0003634903    0.0010423703